% Model:              2D-Au-Plate-from-wl.mph
% Version:            COMSOL 6.1.0.282
% Date:               Apr 21 2025, 22:59
% Dimension:          1
% Nodes:              101
% Expressions:        5
% Description:        Table graph
% R0 (nm),C_ED (m^2),C_MD (m^2),C_EQ (m^2),C_MQ (m^2),C_full (m^2)
60,2.9972238514936544E-15,6.795225480050419E-17,1.4938976819544296E-18,2.8012976636027178E-21,3.0666728052737762E-15
60.99999999999999,3.4056043218649255E-15,8.220404749832701E-17,1.777661068885191E-18,3.6162800069538066E-21,3.4895896467121445E-15
61.99999999999999,3.8638602825181335E-15,9.928266057220936E-17,2.1093890083416233E-18,4.6534374573889674E-21,3.965256985536142E-15
63,4.377486425239413E-15,1.197290107266534E-16,2.4960575572580757E-18,5.969692310017343E-21,4.499717463215634E-15
63.99999999999999,4.952519887275786E-15,1.4418677779535196E-16,2.94541787277811E-18,7.635736182877468E-21,5.099659718680098E-15
64.99999999999999,5.595609906410222E-15,1.7342223503760676E-16,3.466077035599468E-18,9.739190703802823E-21,5.772507957674131E-15
66,6.314079156640619E-15,2.083483280112688E-16,4.067543981900912E-18,1.2388468745926088E-20,6.5265074171025345E-15
67,7.115972963943706E-15,2.5005381708789275E-16,4.7602497137105166E-18,1.5717472001193242E-20,7.370802748217312E-15
67.99999999999999,8.010185464650708E-15,2.998378793954619E-16,5.555701020611302E-18,1.9891294379238216E-20,8.31559893636116E-15
69,9.006451665487353E-15,3.5925332837099337E-16,6.4663304551466175E-18,2.5113174242510794E-20,9.372196437487735E-15
70,1.0115518732229716E-14,4.3015748977443714E-16,7.505723307930564E-18,3.1632883213965285E-20,1.05532135781953E-14
70.99999999999999,1.1349271107045349E-14,5.147749046504476E-16,8.688755802567268E-18,3.975689606322384E-20,1.1872774524394427E-14
72,1.2720725921713078E-14,6.157742148130756E-16,1.003137752053897E-17,4.9860710669697324E-20,1.3346581374757363E-14
73,1.4244312554179416E-14,7.363599933378169E-16,1.1551166155695007E-17,6.240356020865359E-20,1.499228611723314E-14
73.99999999999999,1.593591982441212E-14,8.803880043837475E-16,1.3267277005862468E-17,7.794620065659334E-20,1.6829653052002388E-14
75,1.7813070793128168E-14,1.0525032847150897E-15,1.520082749818884E-17,9.717212139074324E-20,1.888087207746284E-14
76,1.98950591726619E-14,1.2583115203982604E-15,1.737531576185294E-17,1.209128397807566E-19,2.1170866921661797E-14
76.99999999999999,2.2203079881178303E-14,1.504589039117269E-15,1.981704206297729E-17,1.501778656987015E-19,2.3727636140224245E-14
78,2.4760542135798076E-14,1.799534958776491E-15,2.255666047000064E-17,1.8618977585983621E-19,2.6582819944820425E-14
79,2.7592749652941793E-14,2.1530923047958373E-15,2.562884462460844E-17,2.304254655892195E-19,2.977170122782783E-14
79.99999999999999,3.0727361948583814E-14,2.5773308579810113E-15,2.9075102751871827E-17,2.846631677954886E-19,3.333405257248449E-14
81,3.41941505888752E-14,3.086920840989897E-15,3.294510232066969E-17,3.510363612165928E-19,3.731436756854698E-14
82,3.802472028093632E-14,3.699710693238544E-15,3.729888249970511E-17,4.32093079732127E-19,4.1762161949754305E-14
82.99999999999999,4.225187478707867E-14,4.437417977489102E-15,4.220900420959238E-17,5.308603606542997E-19,4.673203262913803E-14
84,4.690904644288658E-14,5.3264966258583855E-15,4.776503664329972E-17,6.50910465670615E-19,5.228395901585394E-14
85,5.2028964571254644E-14,6.3991087440703765E-15,5.407791974027293E-17,7.964230587191722E-19,5.848294765812401E-14
85.99999999999999,5.764134707716954E-14,7.694372523607336E-15,6.128285412498074E-17,9.722405417412193E-19,6.53979746954436E-14
87,6.377026214898602E-14,9.259687800635603E-15,6.954641609892012E-17,1.1838959106771414E-18,7.310068026163121E-14
88,7.042984714137083E-14,1.1152308003159488E-14,7.907075747402548E-17,1.4376052024722125E-18,8.166266350720682E-14
88.99999999999999,7.761880002709613E-14,1.3441057469845782E-14,9.009874982894294E-17,1.7401985049736018E-18,9.115169644527583E-14
90,8.531275797443876E-14,1.62080397854694E-14,1.0291661288667674E-16,2.0989575731779613E-18,1.0162581333036801E-13
91,9.345505889576109E-14,1.955034503126864E-14,1.1785542205288435E-16,2.521337844782213E-18,1.131257806869274E-13
91.99999999999999,1.019454371388547E-13,2.3581460244596952E-14,1.3528433344653565E-16,3.014550635081025E-18,1.2566519626753327E-13
93,1.1062751446086052E-13,2.8432197720239947E-14,1.5559832473812385E-16,3.585000502495867E-18,1.392188955063411E-13
94,1.1927572419822104E-13,3.425143568488217E-14,1.7918580918748231E-16,4.237702632123676E-18,1.5371058339492284E-13
94.99999999999999,1.2758710506703432E-13,4.120664755006212E-14,2.0638964365419144E-16,4.9757944590002315E-18,1.6900511805520965E-13
96,1.3517879226940504E-13,4.948631184154428E-14,2.3743371706886554E-16,5.80068099945965E-18,1.8490833850901764E-13
97,1.4160055879108018E-13,5.930988185154498E-14,2.7234171210461216E-16,6.713577715882785E-18,2.0118949593244565E-13
97.99999999999999,1.463667857280319E-13,7.095457578995056E-14,3.1083222460891127E-16,7.719789448957081E-18,2.1763991353204036E-13
98.99999999999999,1.4901356566118936E-13,8.482366813327813E-14,3.5222324223268047E-16,8.837992970394575E-18,2.341982950296706E-13
100,1.491812763827707E-13,1.0160633050270263E-13,3.9536581197643925E-16,1.011809389698865E-17,2.5119309079134674E-13
100.99999999999999,1.467116735325715E-13,1.2264018716360066E-13,4.386369494646472E-16,1.1674215632981811E-17,2.698021718612698E-13
101.99999999999999,1.4174002682589038E-13,1.5074356507748818E-13,4.800291539649003E-16,1.3745144158971587E-17,2.9297736620150245E-13
103,1.3476325119970227E-13,1.9208312934833304E-13,5.17306356039304E-16,1.6802296434137628E-17,3.2738048920050875E-13
103.99999999999999,1.266572810687743E-13,2.5972101165467655E-13,5.482537821971541E-16,2.1676922948004956E-17,3.8694822342859596E-13
104.99999999999999,1.1865245480767467E-13,3.722667658965328E-13,5.708931328007859E-16,2.909051636401192E-17,4.915192043533723E-13
106,1.1226928864651387E-13,4.9848468931772E-13,5.836832073033343E-16,3.5863530291613956E-17,6.113735247018288E-13
106.99999999999999,1.0925653219800405E-13,5.000571464674771E-13,5.856224772541676E-16,3.4742520239705026E-17,6.099340436629749E-13
107.99999999999999,1.115496250691672E-13,4.0987468269433826E-13,5.762985567067467E-16,3.178883724380914E-17,5.22032395157456E-13
109,1.2127932629736135E-13,3.396019928391096E-13,5.55905269607561E-16,3.41296245930746E-17,4.614713540306715E-13
109.99999999999999,1.4082986155934526E-13,3.0106368830255173E-13,5.253045850357998E-16,4.231043476495634E-17,4.424611648816977E-13
110.99999999999999,1.7292922916747667E-13,2.8194008477205776E-13,4.862135242605383E-16,5.65087496335767E-17,4.554120362134285E-13
112,2.2076107391548693E-13,2.736851092184723E-13,4.4158448649189113E-16,7.787607860555227E-17,4.949656436990567E-13
112.99999999999999,2.8801386539967645E-13,2.717326702993011E-13,3.9626187695246206E-16,1.0842270997705343E-16,5.60251220285907E-13
113.99999999999999,3.787988155049818E-13,2.735481141946987E-13,3.57964532833041E-16,1.5090942784884854E-16,6.528558036603625E-13
115,4.972746473381864E-13,2.774533394755174E-13,3.3859161292150426E-16,2.0872314656469448E-16,7.7527530157319E-13
115.99999999999999,6.467228730084408E-13,2.820053350356874E-13,3.555575218359315E-16,2.855360150819144E-16,9.293693015810462E-13
116.99999999999999,8.278534307821989E-13,2.856377648652694E-13,4.3246336287568506E-16,3.8451044903822555E-16,1.1143081694593822E-12
118,1.0362679542782165E-12,2.8653193783606504E-13,5.976339890306001E-16,5.06843661628235E-16,1.3239043697649403E-12
118.99999999999999,1.259834275415656E-12,2.827423083567509E-13,8.78689781158472E-16,6.497824815671204E-16,1.5441050560351325E-12
120,1.4777107524813187E-12,2.726394231740411E-13,1.2924807936712814E-15,8.049022053459674E-16,1.7524475586543772E-12
121,1.6635142549139911E-12,2.5559442972441627E-13,1.8335891849346954E-15,9.58293380328476E-16,1.921900567203671E-12
121.99999999999999,1.7930783062465068E-12,2.324762831335417E-13,2.469259123646259E-15,1.0938149388639238E-15,2.0291176634425586E-12
122.99999999999999,1.853152580430157E-12,2.0553309740519377E-13,3.1471938947019812E-15,1.1984036927858438E-15,2.0630312754228386E-12
123.99999999999999,1.845311679370399E-12,1.776000457142447E-13,3.813362100534745E-15,1.266190960661229E-15,2.0279912781458402E-12
125,1.7828242421559187E-12,1.511500935805732E-13,4.428234095284933E-15,1.2989151551081661E-15,1.939701484986885E-12
126,1.6838001618082618E-12,1.277482384651476E-13,4.9730266047640605E-15,1.3032597370509784E-15,1.8178246866152244E-12
127,1.565238419003516E-12,1.0802240827572811E-13,5.446475634443768E-15,1.287479804594227E-15,1.679994782718282E-12
127.99999999999999,1.4400649032429655E-12,9.193145416455802E-14,5.8576927626750244E-15,1.259063892338573E-15,1.539113114062537E-12
129,1.3167299932872241E-12,7.907609309033715E-14,6.21997393242981E-15,1.223784226460411E-15,1.4032498445364515E-12
129.99999999999997,1.200031508675577E-12,6.89293018510539E-14,6.546688892923495E-15,1.1856247614537173E-15,1.276693124181008E-12
130.99999999999997,1.0922530957226257E-12,6.097006437134894E-14,6.849576361461734E-15,1.1471594128056952E-15,1.1612198958682422E-12
132,9.941067505219282E-13,5.473690963164674E-14,7.138117073476918E-15,1.1099915595033695E-15,1.0570917687865552E-12
133,9.054167527578679E-13,4.985095237040213E-14,7.419665652418168E-15,1.0751519811627277E-15,9.637625227618508E-13
134,8.255551164246495E-13,4.6008460381123894E-14,7.699739964623634E-15,1.043446833857655E-15,8.803067636042547E-13
135,7.537077590903006E-13,4.297240857346202E-14,7.982435500568606E-15,1.0157541819830121E-15,8.056783573463142E-13
135.99999999999997,6.890309973795871E-13,4.055867141943303E-14,8.270772736986856E-15,9.93337305841003E-16,7.38853778841848E-13
136.99999999999997,6.307044665868507E-13,3.862343789601756E-14,8.566774556923192E-15,9.78216701048108E-16,6.788728957408395E-13
138,5.779936203518397E-13,3.705629634036172E-14,8.871873830423717E-15,9.737333300595122E-16,6.248955238526847E-13
139,5.30245063758747E-13,3.576943027036712E-14,9.186736444367949E-15,9.854214079997796E-16,5.761866518814819E-13
140,4.869099854308714E-13,3.4694440709315855E-14,9.51161940982875E-15,1.0224328227856045E-15,5.321384783728016E-13
141,4.4752944331981776E-13,3.377575064466644E-14,9.846099074679434E-15,1.1000659583205925E-15,4.922513589974842E-13
141.99999999999997,4.1173507429077144E-13,3.296744869574227E-14,1.0188943007813637E-14,1.244282232393541E-15,4.561357482267209E-13
142.99999999999997,3.7925342635405845E-13,3.2230264329270436E-14,1.053789946960908E-14,1.5002157371666575E-15,4.235218058901046E-13
144,3.4991532310653967E-13,3.1528204011617E-14,1.0889154216310061E-14,1.9489132771692304E-15,3.9428159461163596E-13
145,3.236702829916175E-13,3.082682201896049E-14,1.1236339957944844E-14,2.742151261661742E-15,3.684755962301846E-13
146,3.006319432478668E-13,3.008909950179257E-14,1.1568977777819474E-14,4.179903924012175E-15,3.46469924451491E-13
147,2.811553010292586E-13,2.9273182856512795E-14,1.1870866172256495E-14,6.896519555226589E-15,3.291958696132545E-13
147.99999999999997,2.6596996399392606E-13,2.8335403596492267E-14,1.2122570884127416E-14,1.23521292389621E-14,3.1878006771350783E-13
148.99999999999997,2.562571629822305E-13,2.72712597116389E-14,1.233925700731206E-14,2.427565916555566E-14,3.2014333886673713E-13
150,2.5237846489978096E-13,2.640163887168788E-14,1.2852224295221709E-14,5.3263679547802164E-14,3.4489600761449267E-13
151,2.4036140399037077E-13,2.806056487282356E-14,1.594050232765986E-14,1.269377856142369E-13,4.113002568050911E-13
152,1.5534429713265588E-13,3.802000999632434E-14,2.6675320547929197E-14,2.2392595860301294E-13,4.439655862799224E-13
153,6.430743543286244E-14,4.4578766854342083E-14,3.352034795426035E-14,1.8124717760477804E-13,3.2365372784624293E-13
153.99999999999997,4.284107585993188E-14,4.3699689350344795E-14,3.452218381428882E-14,1.2177250354978224E-13,2.4283545257434773E-13
154.99999999999997,3.75456754733384E-14,3.561701635447239E-14,3.634235610976468E-14,9.55406849078347E-14,2.0504573284541017E-13
156,3.29441853919536E-14,2.825835765517376E-14,4.0064751497959445E-14,6.611317028469911E-14,1.673804648297859E-13
157,2.7398484964278545E-14,2.7152646664911565E-14,4.5866884053820664E-14,4.8927928657149666E-14,1.4934594434016045E-13
158,2.1192222476526052E-14,2.660981678333341E-14,5.381654308490313E-14,3.987843509416347E-14,1.4149701743892607E-13
159,1.4800465427301377E-14,2.5946141756261253E-14,6.353745678847414E-14,3.4427251747534395E-14,1.3871131571957117E-13
159.99999999999997,8.804663912544943E-15,2.516683785815784E-14,7.37364302685677E-14,3.0850462760070733E-14,1.385583947993412E-13
