% Model:              SPP2-from-lambda.mph
% Version:            COMSOL 6.1.0.282
% Date:               Nov 28 2024, 13:22
% Dimension:          1
% Nodes:              61
% Expressions:        1
% Description:        Table graph
% ,
600,15.523202635644001
610,15.350383745083997
620,15.194102387311
630,15.046370594864
640,14.907082853375998
650,14.776127746238998
660,14.653401803996
670,14.538806615951001
680,14.424662270975
690,14.318530537598996
700,14.227873161216
710,14.129979856751
720,14.047411345899508
730,13.965088967294792
740,13.890459076955999
749.9999999999999,13.81602787105775
760,13.749212203190998
770,13.682555569703958
780,13.623440125715108
790,13.564454964443998
800,13.505595717832309
810,13.454199044979752
820,13.40289971654044
830,13.35169773805244
840,13.300593445652789
850,13.256867953456
859.9999999999999,13.213214254060388
870,13.176891096340789
879.9999999999999,13.133368806339588
890,13.097155098501512
900,13.060991290665989
910,13.02487714859375
920,12.98881291259959
930,12.95999760771911
940,12.924023126112791
949.9999999999999,12.89527960925151
960,12.866567952038311
969.9999999999999,12.837888239179936
980,12.809240439508207
989.9999999999999,12.780624612643136
1000,12.759183740613508
1010,12.730623831317297
1019.9999999999999,12.7092248951147
1030,12.687843938728898
1040,12.666480965016039
1050,12.645135981449561
1060,12.623808991233236
1070,12.602499995359937
1080.0000000000002,12.58120899716071
1090,12.567024998337969
1100,12.545763999061373
1109.9999999999998,12.531599999431226
1120,12.51036899968227
1130,12.496224999818072
1140,12.475023999917703
1149.9999999999998,12.460899999961272
1160,12.44678399998497
1170,12.432675999995803
1180,12.418575999999627
1190,12.404483999999883
1199.9999999999998,12.390399999999955
