% Model:              3D-Ag-Plate.mph
% Version:            COMSOL 6.2.0.339
% Date:               May 14 2025, 19:53
% Dimension:          1
% Nodes:              51
% Expressions:        6
% Description:        Table graph
% lambda0 (nm),real(px) (C*m),imag(px) (C*m),real(my)/c_const (C*m),imag(my)/c_const (C*m),real(pz) (C*m),imag(pz) (C*m)
300,1.117732709131126E-34,5.46610537683961E-35,-2.2227229634912095E-36,-1.1097595997704181E-36,7.826442772704596E-35,3.827576128141427E-35
302,1.119163723190207E-34,5.432907621042697E-35,-2.1965441281813315E-36,-1.0882942608048706E-36,7.836456149543283E-35,3.8043234270494536E-35
304,1.1205681322235406E-34,5.400090536582302E-35,-2.1707998528539546E-36,-1.0673763734673867E-36,7.846283806795475E-35,3.7813371425562366E-35
306,1.1219465719450018E-34,5.367648056035891E-35,-2.1454813335424944E-36,-1.0469886751849954E-36,7.85593017591752E-35,3.758613063154529E-35
307.99999999999994,1.1232996601026647E-34,5.335574219482763E-35,-2.1205799576862233E-36,-1.0271145493326122E-36,7.865399560507564E-35,3.7361470471046516E-35
309.99999999999994,1.1246279973355102E-34,5.303863171753063E-35,-2.096087300644272E-36,-1.0077379972992637E-36,7.874696143663332E-35,3.713935020215255E-35
312,1.1259321680193144E-34,5.272509161894422E-35,-2.071995122197694E-36,-9.888436118078451E-37,7.883823995353459E-35,3.691972975604331E-35
314,1.1272127410239875E-34,5.241506545155473E-35,-2.0482953631397383E-36,-9.704165514452207E-37,7.892787079047508E-35,3.6702569756344344E-35
316,1.1284702703160216E-34,5.210849786954282E-35,-2.024980142012891E-36,-9.524425164269369E-37,7.901589256935277E-35,3.6487831554532984E-35
318,1.1297052953778602E-34,5.180533468213489E-35,-2.002041751985398E-36,-9.349077256347426E-37,7.910234293471769E-35,3.6275477273767915E-35
319.99999999999994,1.1309183414629885E-34,5.150552292037322E-35,-1.979472657802412E-36,-9.17798894927305E-37,7.918725857369015E-35,3.6065469855289417E-35
321.99999999999994,1.1321099197696327E-34,5.120901093078974E-35,-1.9572654927344207E-36,-9.01103216642433E-37,7.927067522728078E-35,3.5857773104582135E-35
324,1.133280498504002E-34,5.091572553273199E-35,-1.9354129893171284E-36,-8.848083948934371E-37,7.935263266233826E-35,3.5652342964037907E-35
326,1.134430644000699E-34,5.062566034999615E-35,-1.913908209685857E-36,-8.689023788395682E-37,7.943315506014305E-35,3.544916469236546E-35
328,1.1355607815525923E-34,5.033874779227409E-35,-1.8927442312550258E-36,-8.533737434938536E-37,7.951227907806665E-35,3.5248193909744165E-35
330,1.136670934673018E-34,5.005491666597046E-35,-1.8719144764578688E-36,-8.38211648617041E-37,7.959001839336967E-35,3.5049389051143446E-35
331.99999999999994,1.137762236646895E-34,4.977414936120784E-35,-1.8514120667667933E-36,-8.234050244790706E-37,7.966643175133385E-35,3.485272667273935E-35
333.99999999999994,1.1388348203976838E-34,4.949638806891473E-35,-1.831230709446273E-36,-8.089436959366363E-37,7.974153727793439E-35,3.465817067325594E-35
336,1.1398891036946052E-34,4.922158698481984E-35,-1.8113641123230447E-36,-7.948176945067047E-37,7.981536404007438E-35,3.446568903135411E-35
338,1.140925493049966E-34,4.894970115086483E-35,-1.791806122967068E-36,-7.810173935670725E-37,7.988794033457903E-35,3.42752502898003E-35
340,1.1419443839593894E-34,4.868068643457036E-35,-1.772550725910074E-36,-7.67533494623989E-37,7.995929371870694E-35,3.408682355193277E-35
342,1.1429463853255509E-34,4.841447660559633E-35,-1.753591981421485E-36,-7.543570874737624E-37,8.002946396751841E-35,3.39003647165161E-35
343.99999999999994,1.1439314541947656E-34,4.815108243079057E-35,-1.7349242569247723E-36,-7.414793240689092E-37,8.009845313062607E-35,3.3715876312738794E-35
345.99999999999994,1.144900138996284E-34,4.7890430873386417E-35,-1.7165418697530228E-36,-7.288919162464573E-37,8.01662968338185E-35,3.353331017478711E-35
348,1.145852798615163E-34,4.7632481381890476E-35,-1.698439323129158E-36,-7.1658675194608365E-37,8.023302021646015E-35,3.33526376622375E-35
350,1.1467897817567122E-34,4.737719393583165E-35,-1.680611242468975E-36,-7.045559894678008E-37,8.029864775213864E-35,3.3173830695333453E-35
352,1.1477114296448062E-34,4.7124529118724914E-35,-1.6630523720240486E-36,-6.927920459993877E-37,8.036320330514757E-35,3.2996861767081695E-35
354,1.1486180777910855E-34,4.6874448367443245E-35,-1.6457575728408913E-36,-6.812875869652474E-37,8.04267101912816E-35,3.282170401790575E-35
355.99999999999994,1.1495100532752074E-34,4.662691434481647E-35,-1.6287218219514528E-36,-6.700355176340971E-37,8.048919106304573E-35,3.2648331364173476E-35
357.99999999999994,1.150387337902488E-34,4.638186750060823E-35,-1.6119403090838985E-36,-6.590290801413005E-37,8.055065854488678E-35,3.247671225190292E-35
360,1.1512508723341186E-34,4.613931230433189E-35,-1.5954080246789346E-36,-6.4826148334891584E-37,8.061115028474856E-35,3.230683452404384E-35
362,1.1521006383951853E-34,4.5899194363385034E-35,-1.579120365174457E-36,-6.377263576986636E-37,8.067067731610974E-35,3.2138664976100197E-35
364,1.152936927360694E-34,4.566147877843939E-35,-1.5630727370028188E-36,-6.2741748064923335E-37,8.072926036681659E-35,3.1972178286655606E-35
366,1.1537600191369795E-34,4.542613163332756E-35,-1.547260648879948E-36,-6.173288303184111E-37,8.078691974442224E-35,3.18073503054645E-35
367.99999999999994,1.1545701821616303E-34,4.5193119461247734E-35,-1.5316797069993475E-36,-6.074545781309348E-37,8.084367489413256E-35,3.164415771099724E-35
369.99999999999994,1.1553676769327728E-34,4.496240900724585E-35,-1.5163256116137152E-36,-5.977890801430621E-37,8.089954441021897E-35,3.14825775973194E-35
372,1.1561527589016458E-34,4.4733967324366885E-35,-1.5011941551682036E-36,-5.8832686887043016E-37,8.095454624906696E-35,3.132258729901711E-35
374,1.156925679399302E-34,4.4507761956997764E-35,-1.4862812209759769E-36,-5.790626462560366E-37,8.100869790187205E-35,3.1164164403185146E-35
376,1.1576866853835813E-34,4.4283761069821595E-35,-1.4715827818174854E-36,-5.699912774874968E-37,8.106201647166192E-35,3.10072868167563E-35
378,1.158436018805387E-34,4.4061933506447557E-35,-1.4570948983812723E-36,-5.6110778534469166E-37,8.11145186859095E-35,3.085193281918049E-35
379.99999999999994,1.1591739158647576E-34,4.3842248791085516E-35,-1.4428137175937694E-36,-5.524073450090149E-37,8.116622087849186E-35,3.069808107963947E-35
381.99999999999994,1.1599006062200013E-34,4.362467706974373E-35,-1.4287354707580927E-36,-5.4388527938877675E-37,8.121713896380539E-35,3.0545710633990953E-35
384,1.1606163123687836E-34,4.340918897781278E-35,-1.4148564712602085E-36,-5.355370549048677E-37,8.126728842539081E-35,3.039480082503426E-35
386,1.1613212497370317E-34,4.3195755448785533E-35,-1.4011731116096684E-36,-5.2735827737325105E-37,8.131668434642477E-35,3.0245331230272964E-35
388,1.1620157441520171E-34,4.298432359499179E-35,-1.3876817154636394E-36,-5.193447672550288E-37,8.136534626317326E-35,3.009727603321565E-35
390,1.1626998308808586E-34,4.2774914626877586E-35,-1.3743790909387642E-36,-5.114921981996268E-37,8.141328125862107E-35,2.995062703930813E-35
391.99999999999994,1.163373770256006E-34,4.2567477369365084E-35,-1.3612617412707275E-36,-5.037966610795828E-37,8.146050666996907E-35,2.980536022589859E-35
393.99999999999994,1.1640377565569432E-34,4.2361983378686E-35,-1.3483263523178654E-36,-4.962542721897898E-37,8.150703578197989E-35,2.966145657463786E-35
395.99999999999994,1.1646922897873323E-34,4.2158386623221476E-35,-1.3355695176054991E-36,-4.8886130469688076E-37,8.155288527867201E-35,2.951889362627884E-35
398,1.1653370470465972E-34,4.1956702016443327E-35,-1.3229883485485772E-36,-4.816139633350602E-37,8.159806384269091E-35,2.9377659867144054E-35
400,1.165972433083902E-34,4.175688421209919E-35,-1.3105796185020207E-36,-4.7450875238860614E-37,8.164258617479244E-35,2.923773443066588E-35
