% Model:              3D-Au-Plate-two_Beam.mph
% Version:            COMSOL 6.2.0.339
% Date:               Nov 11 2025, 15:53
% Dimension:          1
% Nodes:              61
% Expressions:        6
% Description:        Table graph
% lambda0 (nm),real(mx) (m^2*A),imag(mx) (m^2*A),real(my) (m^2*A),imag(my) (m^2*A),real(mz) (m^2*A),imag(mz) (m^2*A)
800,5.70126997327268E-24,-1.5868229410654066E-23,1.3805436576360317E-23,5.594055736725873E-24,-9.916457110529318E-26,2.1545024430482622E-23
804.9999999999999,6.916620373085565E-24,-1.626283942652285E-23,1.44335423573559E-23,6.3222607298924026E-24,-1.7765400376339954E-25,2.1863559385017942E-23
810,8.234967252979283E-24,-1.6496143475159224E-23,1.4856299960541573E-23,7.261463697937531E-24,-2.4360805787265224E-25,2.222220275619638E-23
814.9999999999999,9.647558741219093E-24,-1.6585280486116657E-23,1.510406492217866E-23,8.35083715263817E-24,-3.026984630769161E-25,2.261387109753281E-23
820,1.1154762369955341E-23,-1.6534710319892413E-23,1.5192381967735983E-23,9.564288444467338E-24,-3.5806709460064003E-25,2.30345485132687E-23
825,1.2761037097622708E-23,-1.6337605711512687E-23,1.5122765577420405E-23,1.0891951200385398E-23,-4.117387261777478E-25,2.3482128352420665E-23
830,1.447087484753647E-23,-1.5983315477937567E-23,1.489126348778112E-23,1.2329262324229931E-23,-4.652525630516162E-25,2.3955302335706296E-23
835,1.6289162566950882E-23,-1.5453725963547275E-23,1.4485250232691208E-23,1.3875340704490118E-23,-5.199241086842301E-25,2.4453549550497447E-23
839.9999999999999,1.8220585787751593E-23,-1.4726027686056273E-23,1.3886504174658625E-23,1.553091471411252E-23,-5.765963525030436E-25,2.4977072859879474E-23
845,2.0229595790343012E-23,-1.378904895829118E-23,1.3085896777611568E-23,1.7261221768547216E-23,-6.333236433239111E-25,2.551767123120874E-23
849.9999999999999,2.2354050459279827E-23,-1.2598027445246834E-23,1.2044684980369645E-23,1.9098589748874845E-23,-6.933631732407756E-25,2.6084016084990456E-23
855,2.4592089412756837E-23,-1.111214224157537E-23,1.0726317459537992E-23,2.1039705477624627E-23,-7.573546116169348E-25,2.667734907020099E-23
859.9999999999999,2.6936996860047857E-23,-9.282568609530379E-24,9.086633282638099E-24,2.3076925114909275E-23,-8.259868378898626E-25,2.7299181425737794E-23
865,2.933147289609981E-23,-7.088007015690379E-24,7.106074050350858E-24,2.515675909979825E-23,-8.971666160327434E-25,2.79398635388566E-23
869.9999999999999,3.179516271925536E-23,-4.438670574266141E-24,4.70315812852508E-24,2.729519523102429E-23,-9.741590356747021E-25,2.8611432152731804E-23
875,3.4334588115671087E-23,-1.2071111669635583E-24,1.761731706103952E-24,2.9495867947629754E-23,-1.0612265798349956E-24,2.932890645396644E-23
879.9999999999999,3.6851061597252606E-23,2.6574535383406158E-24,-1.7649192372054617E-24,3.166665902120078E-23,-1.1561461501400404E-24,3.0083611493685303E-23
885,3.9221801864958174E-23,7.182066359667719E-24,-5.901319764859186E-24,3.369362015191073E-23,-1.2565312489396862E-24,3.086380787327604E-23
890,4.1378379704807943E-23,1.2517688132160541E-23,-1.0784644036678008E-23,3.551040230106093E-23,-1.3664725634138557E-24,3.168561297482826E-23
894.9999999999999,4.3156558471166547E-23,1.8744443591880397E-23,-1.648522327547896E-23,3.69656264981428E-23,-1.4856833509147927E-24,3.255149485860024E-23
900,4.435015892144741E-23,2.5945027747711608E-23,-2.3076851569937652E-23,3.7866285475052425E-23,-1.6160886841206784E-24,3.346568238753902E-23
904.9999999999999,4.4688041429324686E-23,3.4181869334776225E-23,-3.0613976103170353E-23,3.7958369747464884E-23,-1.7612132703908166E-24,3.4433041093432294E-23
910,4.3836240696358435E-23,4.344477341007389E-23,-3.90818297126091E-23,3.69318749069485E-23,-1.9220988078874734E-24,3.5458812710684425E-23
914.9999999999999,4.1392829688070915E-23,5.362556157329317E-23,-4.837351817293899E-23,3.4415309445232345E-23,-2.100996613390943E-24,3.6548630468299684E-23
920,3.6919060893543366E-23,6.447064302427598E-23,-5.82464465258501E-23,3.000530722654717E-23,-2.300445798143075E-24,3.77089148181665E-23
924.9999999999999,3.0107031401031956E-23,7.538373447988566E-23,-6.814478136195837E-23,2.342593840948209E-23,-2.5155322255086313E-24,3.8921789752508294E-23
930,2.060793546811018E-23,8.588487521509363E-23,-7.761467370360192E-23,1.4360825220158516E-23,-2.756237041807474E-24,4.021677619635865E-23
934.9999999999999,8.132005097788502E-24,9.528271765697448E-23,-8.60061831475411E-23,2.5523433784502488E-24,-3.0370192810469104E-24,4.163183861417997E-23
940,-6.973119750560058E-24,1.0249868112917015E-22,-9.232696956075207E-23,-1.16586022242297E-23,-3.354473573802989E-24,4.315296581404789E-23
945,-2.3840129244770544E-23,1.0664630669023086E-22,-9.577313370925024E-23,-2.74527235219837E-23,-3.702666613315363E-24,4.475817585959095E-23
949.9999999999999,-4.1754499508899075E-23,1.0728182954443644E-22,-9.594197266299498E-23,-4.4160629666454446E-23,-4.098592517273195E-24,4.649041362787017E-23
954.9999999999999,-5.964037648047267E-23,1.0422728356495064E-22,-9.268636429550556E-23,-6.078254351020722E-23,-4.5523881169636665E-24,4.836498793054095E-23
960,-7.646479071690415E-23,9.774457498924567E-23,-8.626555435605293E-23,-7.636657716730564E-23,-5.0737287836144226E-24,5.0400646132992247E-23
965,-9.14188938199782E-23,8.841973030693075E-23,-7.723448153223873E-23,-9.017381280326612E-23,-5.676321743142554E-24,5.261873503749875E-23
969.9999999999999,-1.0401395730385693E-22,7.701643680117056E-23,-6.630664527127256E-23,-1.0176434747557168E-22,-6.376857816557771E-24,5.504453838562645E-23
974.9999999999999,-1.1407176265070123E-22,6.430829218957906E-23,-5.419928159275772E-23,-1.1098504263894654E-22,-7.198311035391443E-24,5.770718928066746E-23
980,-1.2167280111615593E-22,5.097896614189435E-23,-4.1542040099632684E-23,-1.1792027206733128E-22,-8.16653645422173E-24,6.06426728093998E-23
985,-1.2704980009770063E-22,3.754791891513012E-23,-2.8810238872033765E-23,-1.2279194041711092E-22,-9.316731553069954E-24,6.389381839107871E-23
989.9999999999999,-1.3050435805623116E-22,2.4367126090354107E-23,-1.632325801238997E-23,-1.2588316293924417E-22,-1.0696131321893951E-23,6.751267605186232E-23
994.9999999999999,-1.323270261766245E-22,1.1903021579316276E-23,-4.515052560824061E-24,-1.2747039095619087E-22,-1.2315868622887057E-23,7.146474365363743E-23
1000,-1.3286512655049928E-22,4.1080746773805546E-26,6.732143178263952E-24,-1.278685882960204E-22,-1.4286899357370616E-23,7.589510773567488E-23
1005,-1.3231679856291678E-22,-1.1381893084334195E-23,1.757846760598147E-23,-1.2725172900951172E-22,-1.6789898929828454E-23,8.100762901231536E-23
1010,-1.3087530867519483E-22,-2.2139418298740074E-23,2.781045113941586E-23,-1.2580337760870427E-22,-1.992873712702435E-23,8.681630986990248E-23
1014.9999999999999,-1.287653746428654E-22,-3.206470605759696E-23,3.727014693793864E-23,-1.2373730693471001E-22,-2.3806886072100295E-23,9.328881970694931E-23
1019.9999999999999,-1.2606733949185916E-22,-4.1402711077513417E-23,4.6190987007072554E-23,-1.2111780020675E-22,-2.879383161754256E-23,1.0068442622807704E-22
1025,-1.228630441058409E-22,-5.0191876127005143E-23,5.46086717693284E-23,-1.1801790724729627E-22,-3.532361093040585E-23,1.0914676938227932E-22
1030,-1.1921496152584244E-22,-5.846916938902902E-23,6.255713962685483E-23,-1.144927198627064E-22,-4.4037941936683646E-23,1.1880378677822105E-22
1035,-1.1516408859414671E-22,-6.62630650802933E-23,7.006156700335617E-23,-1.105773176437325E-22,-5.591456314096999E-23,1.2968564404291974E-22
1039.9999999999998,-1.1074364322506395E-22,-7.359845613230082E-23,7.714373732580749E-23,-1.0630032476076534E-22,-7.242852820134069E-23,1.4155821402289186E-22
1045,-1.0597438468802778E-22,-8.048843153909941E-23,8.381356820172821E-23,-1.0167849966385971E-22,-9.578047012348137E-23,1.534721429201736E-22
1050,-1.0087483927511333E-22,-8.694054077788621E-23,9.007553455298499E-23,-9.672704948397599E-23,-1.2894967669714628E-22,1.6280961031374448E-22
1055,-9.5459257852163E-23,-9.29520349345329E-23,9.592378753027796E-23,-9.145748240309067E-23,-1.7481760624132839E-22,1.633854893795966E-22
1060,-8.974428286751436E-23,-9.851652603214958E-23,1.0134838232643879E-22,-8.588413372077953E-23,-2.320987358510924E-22,1.4343037713844113E-22
1064.9999999999998,-8.374685330555753E-23,-1.0361715758417177E-22,1.0632879723624992E-22,-8.002337614459967E-23,-2.8622168255809333E-22,8.93417036059333E-23
1070,-7.74905148382523E-23,-1.0824079803561447E-22,1.108494686373267E-22,-7.389955675985484E-23,-3.0759137979042937E-22,5.1510992747620245E-24
1075,-7.100012289707003E-23,-1.1236671369857863E-22,1.148898784312618E-22,-6.753814583414458E-23,-2.8112194598102195E-22,-7.552208998694025E-23
1080,-6.430706468932982E-23,-1.159762549730072E-22,1.1843192320956853E-22,-6.096822909527278E-23,-2.2779677712813195E-22,-1.2402667966246555E-22
1084.9999999999998,-5.763673519335554E-23,-1.1903574365001004E-22,1.2144415782462395E-22,-5.441214305304464E-23,-1.7583902329037783E-22,-1.414886722914753E-22
1090,-5.0842404715219495E-23,-1.2157338937993936E-22,1.2394772125275734E-22,-4.7721455860522986E-23,-1.342757544790196E-22,-1.4188170000945576E-22
1095,-4.378083716912434E-23,-1.2355921468880582E-22,1.2590580152452973E-22,-4.0752457649547377E-23,-1.0289636435499143E-22,-1.3444713342016845E-22
1100,-3.6695245550007934E-23,-1.2497394218432743E-22,1.2730095793563136E-22,-3.374865524318485E-23,-8.03740776467203E-23,-1.244603771701073E-22
