% Model:              2D-Au-Plate.mph
% Version:            COMSOL 6.1.0.282
% Date:               Mar 28 2025, 19:09
% Dimension:          1
% Nodes:              71
% Expressions:        6
% Description:        Table graph
% R0 (nm),real(px) (C*m),imag(px) (C*m),real(py) (C*m),imag(py) (C*m),real(pz) (C*m),imag(pz) (C*m)
50,1.565114381028456E-32,6.036419141901602E-32,-1.3540015122273748E-32,-6.282217418707533E-32,-5.590776442557715E-32,2.2236058262513798E-32
50.99999999999999,1.6990853646028862E-32,6.508679519670234E-32,-1.472745726061452E-32,-6.77953974924141E-32,-5.948098770184572E-32,2.4414251146880762E-32
51.99999999999999,1.8433449466105424E-32,7.009724453943904E-32,-1.6009572386887883E-32,-7.307589581433285E-32,-6.318472440586047E-32,2.6788803550609466E-32
53,1.998725937347279E-32,7.540937448771363E-32,-1.7394384244330534E-32,-7.867866965584861E-32,-6.701479893994097E-32,2.937540827171401E-32
53.99999999999999,2.166144145496309E-32,8.103762205668036E-32,-1.889073852779469E-32,-8.461938014171086E-32,-7.096562421501666E-32,3.2190495854454643E-32
54.99999999999999,2.3466071460159056E-32,8.69970245336988E-32,-2.0508390410376052E-32,-9.091436706567786E-32,-7.502975404159857E-32,3.5251310732179855E-32
56,2.541225812196576E-32,9.330327153779889E-32,-2.225813093707024E-32,-9.758068571444119E-32,-7.919808392006883E-32,3.8575663658190697E-32
56.99999999999999,2.751224975874152E-32,9.99726891053942E-32,-2.4151890716133897E-32,-1.0463612122670703E-31,-8.345928229980086E-32,4.2181874611735906E-32
57.99999999999999,2.977958410308548E-32,1.0702229655187454E-31,-2.620288207958424E-32,-1.1209923343174532E-31,-8.779957559022656E-32,4.608868592382109E-32
59,3.222918278085981E-32,1.1446975191131427E-31,-2.8425751791638794E-32,-1.1998933860293481E-31,-9.220235819685234E-32,5.031421584471151E-32
60,3.487768761208483E-32,1.2233352206352903E-31,-3.0836792759866906E-32,-1.2832658658361338E-31,-9.665026589923772E-32,5.487801162058455E-32
60.99999999999999,3.7743461379560394E-32,1.3063259922990055E-31,-3.3454060418102564E-32,-1.3713186737176816E-31,-1.0111954561588897E-31,5.979793433749033E-32
61.99999999999999,4.084686847653953E-32,1.3938676124196938E-31,-3.629765636439373E-32,-1.4642691699706095E-31,-1.0558570280207467E-31,6.509120724929019E-32
63,4.4210592888079143E-32,1.486164073678535E-31,-3.939000162926138E-32,-1.562342352864075E-31,-1.100205046182296E-31,7.077419285906367E-32
63.99999999999999,4.7859810932389617E-32,1.5834256528769117E-31,-4.2756027820508986E-32,-1.6657711506793872E-31,-1.1439199631448316E-31,7.686065707111234E-32
64.99999999999999,5.182261617250933E-32,1.6858678400093707E-31,-4.642359665293592E-32,-1.7747949150108008E-31,-1.1866508275482448E-31,8.336233271243209E-32
66,5.613023092647447E-32,1.7937110309398683E-31,-5.042383444705954E-32,-1.8896600747024138E-31,-1.228009989024561E-31,9.028877112922489E-32
67,6.081754973271009E-32,1.9071788107555308E-31,-5.479148311354125E-32,-2.0106176532209976E-31,-1.2675802587261918E-31,9.764461936944965E-32
67.99999999999999,6.59235634153704E-32,2.0264963106277394E-31,-5.956544745865673E-32,-2.137922552482074E-31,-1.3049253313456688E-31,1.054319574788443E-31
69,7.149170456113923E-32,2.1518882518652906E-31,-6.47892752012359E-32,-2.271831369735665E-31,-1.3395655490339143E-31,1.1364607775734565E-31
70,7.757064533862393E-32,2.2835752001929604E-31,-7.051173910430092E-32,-2.412599167056214E-31,-1.3710137125696666E-31,1.2227725344724087E-31
70.99999999999999,8.421475845225428E-32,2.421770472239928E-31,-7.678749771809654E-32,-2.560476104996237E-31,-1.3987876243875614E-31,1.3131033308074809E-31
72,9.148501929433614E-32,2.566674522382272E-31,-8.367792150251044E-32,-2.7157026084012887E-31,-1.4223625342971305E-31,1.4072284775606163E-31
73,9.944956083683674E-32,2.7184678136057293E-31,-9.125173506328214E-32,-2.8785021662739365E-31,-1.4412540828001856E-31,1.5048636018478648E-31
73.99999999999999,1.0818463463333806E-31,2.8773041927423156E-31,-9.958603353363373E-32,-3.049075088066113E-31,-1.4549907965142029E-31,1.6056417763809986E-31
75,1.1777559500331745E-31,3.04329831435403E-31,-1.0876725764015226E-31,-3.2275862763265064E-31,-1.4631293020981785E-31,1.7091323113952482E-31
76,1.2831778707019853E-31,3.216512303057511E-31,-1.1889220893283018E-31,-3.414151497446339E-31,-1.4652782754800398E-31,1.814827854036794E-31
76.99999999999999,1.399176554854682E-31,3.3969403123252004E-31,-1.300692551476844E-31,-3.608823819319719E-31,-1.4610845628143268E-31,1.9221560081218724E-31
78,1.5269388196178376E-31,3.584484602517189E-31,-1.4241924296317842E-31,-3.8115674563208705E-31,-1.4502907672508541E-31,2.0305358669614287E-31
79,1.667780773540436E-31,3.7789268436986943E-31,-1.5607680000000486E-31,-4.022231458094917E-31,-1.4326812084036117E-31,2.1392763495882144E-31
79.99999999999999,1.8231591861066215E-31,3.979898670657865E-31,-1.7119125041708263E-31,-4.240519382538613E-31,-1.408155466518778E-31,2.2476956797463537E-31
81,1.994676469360851E-31,4.1868365553377674E-31,-1.8792733337386461E-31,-4.465944166434516E-31,-1.376704881143449E-31,2.3550994216125968E-31
82,2.1840802556809066E-31,4.398929240683436E-31,-2.064653773984651E-31,-4.697775357515761E-31,-1.338424762617366E-31,2.460781294458926E-31
82.99999999999999,2.393259597124918E-31,4.615049002203275E-31,-2.270009555492289E-31,-4.934969550234273E-31,-1.293437278574253E-31,2.564050581957884E-31
84,2.624219238964918E-31,4.833683732938834E-31,-2.4974296127398523E-31,-5.176101800598463E-31,-1.2420207173938031E-31,2.664230152610854E-31
85,2.879049948824727E-31,5.05283352182297E-31,-2.7491024958095594E-31,-5.4192602887345655E-31,-1.1845197780825596E-31,2.7607456592274266E-31
85.99999999999999,3.1598611920690947E-31,5.269912994340058E-31,-3.0272588930588794E-31,-5.661945450252766E-31,-1.1213386880245467E-31,2.8530126520795633E-31
87,3.4686810668923955E-31,5.481619023596703E-31,-3.3340679755510085E-31,-5.900935430019412E-31,-1.0529666632053844E-31,2.9405577397818564E-31
88,3.807303178595998E-31,5.683805678340301E-31,-3.6714912566079824E-31,-6.13215513203239E-31,-9.799228235205325E-32,3.0229802828591768E-31
88.99999999999999,4.177069358699479E-31,5.871360198451741E-31,-4.041064507002885E-31,-6.350545350170144E-31,-9.027659627140071E-32,3.099958998758811E-31
90,4.578557969882743E-31,6.038090257573679E-31,-4.443588430259768E-31,-6.549941061520504E-31,-8.220493370936336E-32,3.171248565437887E-31
91,5.0111717340221455E-31,6.176677232634418E-31,-4.878712933663903E-31,-6.723013638920707E-31,-7.383702311189161E-32,3.2366903333205703E-31
91.99999999999999,5.472607614149404E-31,6.278737515076681E-31,-5.344401253788091E-31,-6.861319875151381E-31,-6.522804221141884E-32,3.29620305676127E-31
93,5.958199812690346E-31,6.335057626793381E-31,-5.836261461739665E-31,-6.9555205957965285E-31,-5.643540257171777E-32,3.3498191967141824E-31
94,6.4602051964131215E-31,6.336096035041857E-31,-6.346810109421539E-31,-6.995873970613984E-31,-4.7509348277285605E-32,3.3975291616782118E-31
94.99999999999999,6.967087109554832E-31,6.272881840477328E-31,-6.864731576429505E-31,-6.973120733868048E-31,-3.850136743184955E-32,3.4394774206928986E-31
96,7.4629642121909535E-31,6.138380744992008E-31,-7.374273266639641E-31,-6.879860493848218E-31,-2.945127756777403E-32,3.4758364750895163E-31
97,7.927570757341747E-31,5.9292965936556745E-31,-7.855179208589733E-31,-6.712364477346093E-31,-2.040003622528423E-32,3.5068132312316365E-31
97.99999999999999,8.33689746464514E-31,5.648276271151408E-31,-8.283270750640785E-31,-6.47283355965711E-31,-1.1381791542585061E-32,3.5326421033310315E-31
98.99999999999999,8.664928180976845E-31,5.306100200933789E-31,-8.632155081070921E-31,-6.171658156999636E-31,-2.4278303754316375E-33,3.5535693986542418E-31
100,8.886589477750707E-31,4.923343527218562E-31,-8.876173101046059E-31,-5.829184031786366E-31,6.435512820884096E-33,3.569868826502979E-31
100.99999999999999,8.981657141236512E-31,4.530773185298917E-31,-8.994352723734682E-31,-5.476222050607695E-31,1.5192296471899495E-32,3.581869538095101E-31
101.99999999999999,8.938971857291686E-31,4.167907937620983E-31,-8.974727254479848E-31,-5.152696159848797E-31,2.3821432114428116E-32,3.589759538044455E-31
103,8.759895403921244E-31,3.8797711970710755E-31,-8.817945145118052E-31,-4.904467321388564E-31,3.2317192504844327E-32,3.5939143909833425E-31
103.99999999999999,8.460107654110355E-31,3.712040591183932E-31,-8.539237358618119E-31,-4.778452336901837E-31,4.06660574104337E-32,3.594539612107433E-31
104.99999999999999,8.069171665457894E-31,3.706249533171919E-31,-8.168149002598564E-31,-4.817755105031425E-31,4.8866496258421424E-32,3.591922069809408E-31
106,7.628065809108525E-31,3.895740745545988E-31,-7.7461917741112885E-31,-5.057484008437737E-31,5.69130329399062E-32,3.5862992321835476E-31
106.99999999999999,7.185927149623571E-31,4.303491729267727E-31,-7.323653992922123E-31,-5.522421969255109E-31,6.480974776303533E-32,3.577909490515262E-31
107.99999999999999,6.796802691056185E-31,4.941749428244878E-31,-6.956385501517602E-31,-6.226516628105488E-31,7.255919377801776E-32,3.5669556125242375E-31
109,6.517788170618851E-31,5.812871650020014E-31,-6.703959999501278E-31,-7.173592703128712E-31,8.016612951525324E-32,3.553624056504715E-31
109.99999999999999,6.408825387145675E-31,6.910260401524856E-31,-6.629515064545686E-31,-8.358148111288899E-31,8.763861590211103E-32,3.5381395560122176E-31
110.99999999999999,6.5338558006738284E-31,8.2181780253858E-31,-6.800984980185335E-31,-9.764999420992432E-31,9.498704216432066E-32,3.520582113101351E-31
112,6.9632224298404965E-31,9.709671614826708E-31,-7.293620152552136E-31,-1.136691461795616E-30,1.0221561477674847E-31,3.5011755770588447E-31
112.99999999999999,7.775397305810661E-31,1.1340981068102897E-30,-8.19177770425542E-31,-1.3118572578569993E-30,1.0933438566609782E-31,3.480031311114089E-31
113.99999999999999,9.056597839058415E-31,1.304235960824532E-30,-9.588517186668471E-31,-1.4946678619935794E-30,1.1636392466813483E-31,3.4572089721742666E-31
115,1.0895224798195491E-30,1.4704962403368701E-30,-1.1579597244826572E-30,-1.6735825824594988E-30,1.2331038645838385E-31,3.43280275488054E-31
115.99999999999999,1.3365779256316743E-30,1.616551359830164E-30,-1.424628712041231E-30,-1.8311992835097433E-30,1.3019124578908917E-31,3.4068801952863566E-31
116.99999999999999,1.6497765761928466E-30,1.719569722012955E-30,-1.7622032941764587E-30,-1.943096214390679E-30,1.3701296127703898E-31,3.3794918095019246E-31
118,2.0226856319397923E-30,1.7509889041776475E-30,-2.1639994299905336E-30,-1.9786352012176835E-30,1.4379503598582985E-31,3.3507099468960794E-31
118.99999999999999,2.4341417771834803E-30,1.6811270230981598E-30,-2.6075388508470874E-30,-1.9058765804084983E-30,1.5054707027816667E-31,3.320471575588538E-31
120,2.8457065626111433E-30,1.48867275889328E-30,-3.0517587943385655E-30,-1.701744501190642E-30,1.572837031096334E-31,3.288825658459375E-31
