% Model:              3D-Au-Plate.mph
% Version:            COMSOL 6.2.0.339
% Date:               Nov 12 2025, 16:29
% Dimension:          1
% Nodes:              61
% Expressions:        6
% Description:        Table graph
% lambda0 (nm),real(px) (C*m),imag(px) (C*m),real(py) (C*m),imag(py) (C*m),real(pz) (C*m),imag(pz) (C*m)
800,-2.233056423057849E-31,-5.584951431990745E-32,8.158356074043798E-32,-2.0219709913738213E-31,-2.067751767258957E-32,6.062732762241702E-32
804.9999999999999,-2.302399880944054E-31,-7.179509254783105E-32,9.395980850738706E-32,-2.1302095573385945E-31,-2.4574101861771004E-32,5.991051685650322E-32
810,-2.3874125265683816E-31,-8.688298559681198E-32,1.0711192282571147E-31,-2.24776500780581E-31,-2.8174574060596394E-32,5.910492467659938E-32
814.9999999999999,-2.4827533256908703E-31,-1.02055855744934E-31,1.2130525450409402E-31,-2.3707496532671606E-31,-3.1525443013940273E-32,5.824680601161849E-32
820,-2.5849927660502245E-31,-1.1780071399742417E-31,1.366877681572031E-31,-2.496991944926058E-31,-3.4666678408470867E-32,5.736377785019469E-32
825,-2.691669261643473E-31,-1.3441485446494429E-31,1.5337633552465113E-31,-2.624916680418251E-31,-3.7628666182188623E-32,5.647771303802708E-32
830,-2.8010811446197103E-31,-1.5212472653621325E-31,1.7149424820975908E-31,-2.7534924423797407E-31,-4.0441670689470554E-32,5.559876581298386E-32
835,-2.9117240177573845E-31,-1.7112703768311079E-31,1.9118010509752458E-31,-2.8816705680657474E-31,-4.313015794950727E-32,5.473351164215384E-32
839.9999999999999,-3.022275101234246E-31,-1.916051597531204E-31,2.125839058578068E-31,-3.0084335038062145E-31,-4.5714948572838005E-32,5.388781500284169E-32
845,-3.1306133945257704E-31,-2.1342040593455537E-31,2.355329284734087E-31,-3.1316946907666123E-31,-4.818849552013805E-32,5.308543175681825E-32
849.9999999999999,-3.236137892763521E-31,-2.37062106773764E-31,2.605225430327374E-31,-3.2511744300665714E-31,-5.059480784660828E-32,5.230819841506321E-32
855,-3.337050286400416E-31,-2.627415538182097E-31,2.877663196441769E-31,-3.365117465924847E-31,-5.294672603890229E-32,5.155656530724489E-32
859.9999999999999,-3.4311065959153305E-31,-2.906876057781581E-31,3.1750150819051534E-31,-3.4712573573443036E-31,-5.525538825105501E-32,5.083004369016193E-32
865,-3.515264255329026E-31,-3.207288630791794E-31,3.4954290525603534E-31,-3.5663637665503453E-31,-5.751006850301636E-32,5.014779769212606E-32
869.9999999999999,-3.58665078429977E-31,-3.534821971650114E-31,3.8454622780769255E-31,-3.6475382464597046E-31,-5.97417367191916E-32,4.948828484403742E-32
875,-3.6403608265791336E-31,-3.8967328728765417E-31,4.232899097832191E-31,-3.7096690990037335E-31,-6.197606333374254E-32,4.88286356093502E-32
879.9999999999999,-3.6704705168210727E-31,-4.29129575991103E-31,4.655962509973108E-31,-3.746381195644976E-31,-6.419967448066555E-32,4.818737173588212E-32
885,-3.670795149768233E-31,-4.715112031655948E-31,5.111073846511568E-31,-3.751004516453222E-31,-6.640158465054032E-32,4.758272698034726E-32
890,-3.632098205137749E-31,-5.174037130415547E-31,5.604601386483138E-31,-3.713723045315864E-31,-6.860551902045482E-32,4.6991771940565645E-32
894.9999999999999,-3.5430393435258565E-31,-5.666033714131762E-31,6.134584254590435E-31,-3.622202283158685E-31,-7.0796412310234E-32,4.6406728110179225E-32
900,-3.3909958324297976E-31,-6.188183584833535E-31,6.698000417312325E-31,-3.462844579737326E-31,-7.298395747718748E-32,4.582685484570713E-32
904.9999999999999,-3.1612093779664564E-31,-6.734618465912789E-31,7.288666817225926E-31,-3.2197672341649452E-31,-7.518374335790739E-32,4.5252414954608774E-32
910,-2.838040982779507E-31,-7.293701872680227E-31,7.894276889068616E-31,-2.875967543645827E-31,-7.740043274923981E-32,4.4681449321493183E-32
914.9999999999999,-2.4059545404694256E-31,-7.84682212287099E-31,8.495019564351551E-31,-2.4144364263112842E-31,-7.963736710529658E-32,4.411108346278392E-32
920,-1.8526331049189483E-31,-8.36726283193122E-31,9.062310911003834E-31,-1.8214872397429098E-31,-8.189789769219405E-32,4.3538276843001865E-32
924.9999999999999,-1.1833753952622844E-31,-8.816641287161768E-31,9.554720302095542E-31,-1.1022252193219866E-31,-8.41741879312521E-32,4.298200639859155E-32
930,-3.974629800781694E-32,-9.160567728883957E-31,9.935175518160913E-31,-2.5527478402715075E-32,-8.648116260553719E-32,4.241615262941657E-32
934.9999999999999,4.94751835011527E-32,-9.356872686311391E-31,1.0158032089916352E-30,7.089875046149248E-32,-8.883111667763199E-32,4.1812896532325446E-32
940,1.4407079016026504E-31,-9.366960993080694E-31,1.0180752794932883E-30,1.7345766336607247E-31,-9.12155113535369E-32,4.1189416325766536E-32
945,2.3712357946934147E-31,-9.17827939870807E-31,9.988523715535308E-31,2.747078071352026E-31,-9.362549329613868E-32,4.056307657127138E-32
949.9999999999999,3.2372446508845328E-31,-8.794663264109604E-31,9.584535890514242E-31,3.6934812918508706E-31,-9.607038860587232E-32,3.9905118092091656E-32
954.9999999999999,3.98266551390217E-31,-8.244622465189844E-31,8.998497522386056E-31,4.512728343200472E-31,-9.854747740164593E-32,3.921003650385963E-32
960,4.568456147610516E-31,-7.575763019531466E-31,8.281076313562383E-31,5.161763421170211E-31,-1.0105487919614085E-31,3.847373071147477E-32
965,4.977286147420687E-31,-6.843302626876569E-31,7.491593352678421E-31,5.620837165699594E-31,-1.0358940736869267E-31,3.769275178988321E-32
969.9999999999999,5.212993009453635E-31,-6.099830063878386E-31,6.686940647736659E-31,5.893136933100172E-31,-1.0614806595219229E-31,3.686473218778214E-32
974.9999999999999,5.294533870515534E-31,-5.387787521077848E-31,5.91331801891206E-31,5.998397573207977E-31,-1.087273214400324E-31,3.598778731747338E-32
980,5.249843569995871E-31,-4.736424733206826E-31,5.202819844339211E-31,5.966313716059801E-31,-1.1132556055916987E-31,3.5060822410672565E-32
985,5.108639262899453E-31,-4.162119463413032E-31,4.5736464485195015E-31,5.828738699127065E-31,-1.1394327407903979E-31,3.4081938699505445E-32
989.9999999999999,4.898443916839529E-31,-3.6710024705979807E-31,4.032881840548591E-31,5.615332999837378E-31,-1.1658572795663612E-31,3.3047541276186977E-32
994.9999999999999,4.64880703797545E-31,-3.2691873169324224E-31,3.5876371878456917E-31,5.357768218717676E-31,-1.192364852886334E-31,3.1985784530667696E-32
1000,4.3730722681537695E-31,-2.943733432326867E-31,3.224009826385488E-31,5.0708381654708645E-31,-1.2190043885586663E-31,3.086814027799344E-32
1005,4.078404599113004E-31,-2.6851407348255447E-31,2.931616340138548E-31,4.76258243221734E-31,-1.2457919954269575E-31,2.966435039397772E-32
1010,3.781957474696676E-31,-2.491325409027356E-31,2.708542538037733E-31,4.451348792404512E-31,-1.2726575239210902E-31,2.84006724159741E-32
1014.9999999999999,3.497951907094291E-31,-2.355699755908757E-31,2.548054396424118E-31,4.152385348084094E-31,-1.2995487216411893E-31,2.710474943462917E-32
1019.9999999999999,3.22513265617108E-31,-2.26831593742321E-31,2.4391683870877894E-31,3.8645943741526678E-31,-1.326488994055502E-31,2.574597756109519E-32
1025,2.967308718945285E-31,-2.2230294425130014E-31,2.3752661592102087E-31,3.5921048578306244E-31,-1.353444130871737E-31,2.4322492519930215E-32
1030,2.727176784828126E-31,-2.2142337225248285E-31,2.3503091590690126E-31,3.3378343527512268E-31,-1.380383801238672E-31,2.2834891690711323E-32
1035,2.5067072639840773E-31,-2.237056094338936E-31,2.359036267995352E-31,3.1038736766884134E-31,-1.407280939946443E-31,2.1279208291011678E-32
1039.9999999999998,2.3072836411975424E-31,-2.2870145755020396E-31,2.396638931174426E-31,2.891689758678369E-31,-1.4341229472299638E-31,1.9657362930513002E-32
1045,2.129932293600264E-31,-2.3601544771157655E-31,2.458870984981358E-31,2.7023360270470215E-31,-1.4608530407091373E-31,1.7966002472216743E-32
1050,1.975368413702681E-31,-2.4528005732622407E-31,2.5418028697656114E-31,2.53653134641498E-31,-1.4874389460133232E-31,1.6206108884467566E-32
1055,1.8441383591703945E-31,-2.5615861159686245E-31,2.641857087125946E-31,2.394807976621464E-31,-1.5138576147607667E-31,1.4377654133991745E-32
1060,1.736541519869896E-31,-2.683294385972107E-31,2.7556180396074446E-31,2.2774320352461892E-31,-1.5400623402953279E-31,1.2481765223495048E-32
1064.9999999999998,1.6527994820093832E-31,-2.8148989153254473E-31,2.8798812042964908E-31,2.184563187593616E-31,-1.5660325566705417E-31,1.0521551559347908E-32
1070,1.5928383273484305E-31,-2.95338033293697E-31,3.0114839901006046E-31,2.116021050812379E-31,-1.5917995985573222E-31,8.497454549502964E-33
1075,1.556452800570551E-31,-3.0957990141789445E-31,3.1474190586269842E-31,2.0714981206938303E-31,-1.6173465995238782E-31,6.404443896526472E-33
1080,1.5430551641801008E-31,-3.2392836786918746E-31,3.2847832405960285E-31,2.0503547495760296E-31,-1.6426351609304793E-31,4.2389615639104544E-33
1084.9999999999998,1.5510584647903325E-31,-3.3773294583953028E-31,3.417073800412663E-31,2.0511867827186483E-31,-1.6676615466004584E-31,2.0344634510648154E-33
1090,1.5791956852381982E-31,-3.5115336515351018E-31,3.545761597053633E-31,2.0724599261519227E-31,-1.6922977233317588E-31,-2.4336419853221003E-34
1095,1.6279629326656147E-31,-3.6429544657516774E-31,3.6718283831632163E-31,2.1144219922677184E-31,-1.7164050457396551E-31,-2.6285401701622845E-33
1100,1.695010769040001E-31,-3.7656002383961705E-31,3.7893014792662664E-31,2.1748860277003242E-31,-1.7400532953995057E-31,-5.079530357359051E-33
