% Model:              2D-Au-Plate_fromR.mph
% Version:            COMSOL 6.2.0.339
% Date:               Nov 30 2025, 16:58
% Dimension:          1
% Nodes:              176
% Expressions:        6
% Description:        Table graph
% R0 (nm),real(px) (C*m),imag(px) (C*m),real(py) (C*m),imag(py) (C*m),real(pz) (C*m),imag(pz) (C*m)
9.999999999999998,3.1302417495584325E-35,-6.747676328735898E-36,5.4313319210544204E-36,3.038795407975551E-35,-1.1254441808501401E-35,-5.825009476177341E-35
11,4.2795895111102946E-35,-9.204177137041599E-36,7.428474110065125E-36,4.1682885742313187E-35,-1.5123979058520715E-35,-7.817876712292953E-35
12,5.702158556559952E-35,-1.223705867880067E-35,9.901548558694216E-36,5.571298225625839E-35,-1.9816240329572122E-35,-1.0228033493986843E-34
12.999999999999998,7.434596935656468E-35,-1.5921925038293365E-35,1.291471731795655E-35,7.285684887027659E-35,-2.5419876021760646E-35,-1.3097301522598709E-34
14,9.51552233387758E-35,-2.0338328820084228E-35,1.6535841777327726E-35,9.351498928347551E-35,-3.202689937013468E-35,-1.6468121320936438E-34
15,1.1985565729255353E-34,-2.5569891707816347E-35,2.083626414829991E-35,1.1810992051561626E-34,-3.973344178222769E-35,-2.03832688663417E-34
15.999999999999998,1.488736797609042E-34,-3.170428825221654E-35,2.589125306269171E-35,1.4708658311235867E-34,-4.863981559607151E-35,-2.4886290003814916E-34
16.999999999999996,1.8265621771441973E-34,-3.8833410510435976E-35,3.177967054430604E-35,1.8091220915634454E-34,-5.885181809563004E-35,-3.002103864819024E-34
18,2.2167099693994363E-34,-4.7053417176523066E-35,3.8584417405898987E-35,2.20077062118059E-34,-7.048052014526375E-35,-3.58322136449386E-34
19,2.6640600386395216E-34,-5.646497275117501E-35,4.6392349340292064E-35,2.650942243460862E-34,-8.364367173421759E-35,-4.236479767062389E-34
19.999999999999996,3.173715480780572E-34,-6.717310483498749E-35,5.529448090913112E-35,3.1650028638832766E-34,-9.846678701401124E-35,-4.966480703895004E-34
21,3.7509863150569804E-34,-7.92877824457376E-35,6.538610926740954E-35,3.7485563470358145E-34,-1.1508219706748402E-34,-5.777868311854743E-34
22,4.401404988403179E-34,-9.29236935599169E-35,7.676704746902561E-35,4.407446419474257E-34,-1.3363248899776027E-34,-6.675362233078917E-34
22.999999999999996,5.13072799867564E-34,-1.082006360790089E-34,8.954165357477297E-35,5.147761936447858E-34,-1.5427129692701466E-34,-7.663761329720273E-34
24,5.944933391400679E-34,-1.25243943682658E-34,1.0381915236136321E-34,5.975840408726149E-34,-1.7716249754155324E-34,-8.747903881951095E-34
25,6.850245781851131E-34,-1.4418388828931398E-34,1.197138576537609E-34,6.8982763718547166E-34,-2.0248105410861224E-34,-9.932770046671901E-34
25.999999999999996,7.853108977155915E-34,-1.6515750010182919E-34,1.3734557948135857E-34,7.921921378946514E-34,-2.3041950668611914E-34,-1.1223369750156088E-33
26.999999999999996,8.960214213715184E-34,-1.8830671718379514E-34,1.5683987025169898E-34,9.053892690752862E-34,-2.6117978810300913E-34,-1.262482362169015E-33
28,1.0178512047416961E-33,-2.13781540252578E-34,1.7832791852505646E-34,1.0301579324510543E-33,-2.9498875534687075E-34,-1.41423136437416E-33
28.999999999999996,1.1515195663420633E-33,-2.417373544615393E-34,2.0194719861879824E-34,1.1672646832943474E-33,-3.3208202522105157E-34,-1.5781094354359615E-33
30,1.2977711479331819E-33,-2.7233823760969617E-34,2.2784314349702626E-34,1.3175046767346335E-33,-3.727248879010492E-34,-1.754655582679939E-33
30.999999999999996,1.4573803332588632E-33,-3.057548162646513E-34,2.5616698453507003E-34,1.481702025993824E-33,-4.17199573630907E-34,-1.9444158421597756E-33
31.999999999999996,1.6311444823649363E-33,-3.421671610842031E-34,2.8707868941567568E-34,1.6607113649301717E-33,-4.658057275604745E-34,-2.147935683886318E-33
33,1.8198948911712002E-33,-3.8176330868854723E-34,3.2074618288560526E-34,1.8554176840000032E-33,-5.188820150965322E-34,-2.365786572342284E-33
33.99999999999999,2.024485459792471E-33,-4.24742406567647E-34,3.5734711448767585E-34,2.066737709821619E-33,-5.767908520738282E-34,-2.598527661491291E-33
35,2.245806767543986E-33,-4.713124142235218E-34,3.970677197914408E-34,2.2956213509265595E-33,-6.399235403013764E-34,-2.846737523595395E-33
36,2.484776774304914E-33,-5.21692880176575E-34,4.401059577730679E-34,2.543051663449078E-33,-7.087030289617385E-34,-3.111004210466044E-33
36.99999999999999,2.7423453170723875E-33,-5.76116446283732E-34,4.8667019860580785E-34,2.8100477267482866E-33,-7.83593346717328E-34,-3.39190397862747E-33
38,3.0194982948513623E-33,-6.34826891660046E-34,5.369834579334605E-34,3.097664150124902E-33,-8.650921652319651E-34,-3.690061877142303E-33
39,3.3172520717428335E-33,-6.980849936588831E-34,5.912782623720103E-34,3.4069921787013574E-33,-9.537478688426112E-34,-4.0060292639684715E-33
39.99999999999999,3.636663715359622E-33,-7.66164363683001E-34,6.498067164473203E-34,3.739163442777163E-33,-1.0501518121461763E-33,-4.340455492120194E-33
41,3.97882259835251E-33,-8.393566305085005E-34,7.1283233230952786E-34,4.095348596037795E-33,-1.1549313267710071E-33,-4.693905538544013E-33
42,4.3448600256959E-33,-9.179712100705744E-34,7.806397813904069E-34,4.4767602620396155E-33,-1.2687872514326088E-33,-5.0670034609071654E-33
42.99999999999999,4.7359468896726295E-33,-1.0023380517147311E-33,8.535306908511807E-34,4.8846549027595666E-33,-1.392470685391529E-33,-5.460342231816582E-33
44,5.153294101912978E-33,-1.092807699357304E-33,9.318292645635401E-34,5.3203336906835945E-33,-1.5267897471325766E-33,-5.8745231095395415E-33
45,5.5981581203711284E-33,-1.1897554104512565E-33,1.0158811665871658E-33,5.785144859433166E-33,-1.6726198428105282E-33,-6.310128905016063E-33
45.99999999999999,6.071837153202472E-33,-1.2935821220118012E-33,1.1060560807748415E-33,6.280485143668812E-33,-1.83090298530745E-33,-6.767699197462773E-33
47,6.575682488318206E-33,-1.4047168743316424E-33,1.2027547402302565E-33,6.807804018533075E-33,-2.0026627015265817E-33,-7.247836915110475E-33
48,7.111087292857147E-33,-1.5236186068029462E-33,1.306404045334562E-33,7.36860059819799E-33,-2.1889979851818227E-33,-7.751022482584283E-33
48.99999999999999,7.679502298108621E-33,-1.6507803661680438E-33,1.417467731070264E-33,7.964433551283933E-33,-2.3910873529895073E-33,-8.277809856099046E-33
50,8.282427233031607E-33,-1.786734068748802E-33,1.5364447477273482E-33,8.596915644910865E-33,-2.6102338428081706E-33,-8.82866381769106E-33
50.99999999999999,8.921424652043719E-33,-1.932052019116845E-33,1.6638687080713855E-33,9.267723966873328E-33,-2.8477685030331985E-33,-9.40399191459916E-33
51.99999999999999,9.598104190624318E-33,-2.0873518041115972E-33,1.800322012874053E-33,9.978596952012566E-33,-3.105157267018603E-33,-1.0004142707646629E-32
53,1.0314145082786543E-32,-2.2532917680205005E-33,1.9464380935156653E-33,1.0731335561426296E-32,-3.383999158943953E-33,-1.0629506653472633E-32
53.99999999999999,1.1071292001780928E-32,-2.430600275403316E-33,2.1028965802876254E-33,1.1527818353928902E-32,-3.685947949305083E-33,-1.128032676559344E-32
54.99999999999999,1.1871344461914337E-32,-2.620045308715467E-33,2.2704412861994556E-33,1.2369985849267107E-32,-4.012809954126898E-33,-1.1956750378717083E-32
56,1.2716188354643922E-32,-2.8224777202321316E-33,2.4498723258257227E-33,1.325986133082604E-32,-4.3664761540611E-33,-1.265886618223691E-32
56.99999999999999,1.3607767237481474E-32,-3.0388102178000173E-33,2.6420683401904933E-33,1.4199545117200528E-32,-4.7489695334269154E-33,-1.3386657412629265E-32
57.99999999999999,1.454810659947221E-32,-3.270031746234077E-33,2.8479824904049658E-33,1.5191216775358774E-32,-5.162424751945262E-33,-1.4139962071631405E-32
59,1.5539305051896362E-32,-3.517220790236632E-33,3.0686552468166757E-33,1.6237144604892077E-32,-5.609092869815699E-33,-1.491844784235078E-32
60,1.658356154717029E-32,-3.781558730257933E-33,3.305217441692054E-33,1.7339683337170943E-32,-6.091429578804374E-33,-1.5721759691083326E-32
60.99999999999999,1.76831382529607E-32,-4.064325110728927E-33,3.5589072205922266E-33,1.8501291006074616E-32,-6.611788291959496E-33,-1.654917746251441E-32
61.99999999999999,1.884039625177041E-32,-4.366903849211838E-33,3.831084061000652E-33,1.9724506609268557E-32,-7.172879370886545E-33,-1.7399940157346244E-32
63,2.0057785159587915E-32,-4.690833034899018E-33,4.1232247625929774E-33,2.1011984591041285E-32,-7.777383728427983E-33,-1.8272915350747655E-32
63.99999999999999,2.133786193734736E-32,-5.0377670655803495E-33,4.436948738065969E-33,2.2366474191324035E-32,-8.428026317391696E-33,-1.916685972648086E-32
64.99999999999999,2.2683266291886523E-32,-5.4095361003043856E-33,4.7740397043727316E-33,2.379084236000968E-32,-9.12781285132543E-33,-2.008026999923264E-32
66,2.4096736790364315E-32,-5.808123155434117E-33,5.136448027504251E-33,2.5288059104567544E-32,-9.879567439379492E-33,-2.101103565951065E-32
67,2.558113858518021E-32,-6.235725218627288E-33,5.526308847933414E-33,2.6861209707619213E-32,-1.0686387660712311E-32,-2.195705180209549E-32
67.99999999999999,2.7139424864226714E-32,-6.694724842711385E-33,5.945984558415777E-33,2.8513512242002217E-32,-1.155111389023537E-32,-2.2915954560796297E-32
69,2.8774646376894923E-32,-7.187759963664411E-33,6.398059530151233E-33,3.0248280343923115E-32,-1.2476871588397195E-32,-2.388437239128108E-32
70,3.048998646234506E-32,-7.717712381500368E-33,6.885388520843494E-33,3.2068980353859373E-32,-1.3466465757569758E-32,-2.4859430726918006E-32
70.99999999999999,3.2288731301995013E-32,-8.287769986554194E-33,7.411098649333084E-33,3.397917246669428E-32,-1.452267980261848E-32,-2.5837242452673247E-32
72,3.4174241275058023E-32,-8.90141927666732E-33,7.978659838506503E-33,3.598255250091934E-32,-1.5648207678028479E-32,-2.681335671097057E-32
73,3.615001202115241E-32,-9.562511557591692E-33,8.591887533173344E-33,3.8082934520888295E-32,-1.6845546833966637E-32,-2.778330575225883E-32
73.99999999999999,3.8219626726231433E-32,-1.027528599899695E-32,9.254997196623674E-33,4.028424724548273E-32,-1.8116839023367165E-32,-2.874194347742E-32
75,4.0386747736743487E-32,-1.1044449060900047E-32,9.972639830338863E-33,4.259052846595103E-32,-1.946398908935455E-32,-2.9683591763560386E-32
76,4.265512266617069E-32,-1.1875129750095483E-32,1.074996929317606E-32,4.500590546899094E-32,-2.0888303624937153E-32,-3.0602481936708606E-32
76.99999999999999,4.5028550986100815E-32,-1.277307690936072E-32,1.1592673746206998E-32,4.753460600596251E-32,-2.2390856427587939E-32,-3.1492035122126453E-32
78,4.7510849392401715E-32,-1.3744580461611423E-32,1.2507063152726672E-32,5.01808908180009E-32,-2.3972136534802306E-32,-3.234469327832827E-32
79,5.010590596298292E-32,-1.479659023720014E-32,1.35001275370212E-32,5.294910705271794E-32,-2.563155999496284E-32,-3.3154924978589863E-32
79.99999999999999,5.281751345322107E-32,-1.5936878940433833E-32,1.4579586956575335E-32,5.584354048680562E-32,-2.736863930953574E-32,-3.391393274460628E-32
81,5.564940287391909E-32,-1.7173992105535846E-32,1.5754026373021412E-32,5.886848368578085E-32,-2.918154938116031E-32,-3.461416378104984E-32
82,5.860519887003673E-32,-1.8517362026437697E-32,1.7032964925714878E-32,6.202811222147726E-32,-3.1067408134228464E-32,-3.524830208575618E-32
82.99999999999999,6.168828775645778E-32,-1.9977497757904924E-32,1.842695143672958E-32,6.532642417784823E-32,-3.3023065069675947E-32,-3.5808006669938515E-32
84,6.490177429364365E-32,-2.156601026594541E-32,1.9947699758336251E-32,6.87671726335524E-32,-3.504384272548181E-32,-3.628587262043673E-32
85,6.824831858863648E-32,-2.329577715354343E-32,2.160817444472618E-32,7.235371536419224E-32,-3.7124812073355254E-32,-3.667448318626665E-32
85.99999999999999,7.173001996599436E-32,-2.5181058972599707E-32,2.3422776650187152E-32,7.608890353385168E-32,-3.9259716232986414E-32,-3.696672015041815E-32
87,7.534823818340523E-32,-2.7237613291929374E-32,2.540747550157983E-32,7.997488425140829E-32,-4.144090102139602E-32,-3.7155557933699703E-32
88,7.91033362867335E-32,-2.948278638091289E-32,2.757989233453482E-32,8.401287754726407E-32,-4.36599889547767E-32,-3.7235743301442353E-32
88.99999999999999,8.299445829082911E-32,-3.1935890693831126E-32,2.995955013614756E-32,8.820288882115625E-32,-4.590979594389823E-32,-3.7202265251052605E-32
90,8.701909964033099E-32,-3.46180809334876E-32,3.256796665217877E-32,9.254345307753724E-32,-4.8178835398858805E-32,-3.70506048065989E-32
91,9.117282326191601E-32,-3.755258030323052E-32,3.5428817204064155E-32,9.703107536591953E-32,-5.045920922593562E-32,-3.677724736984652E-32
91.99999999999999,9.544855247169464E-32,-4.076482701861783E-32,3.8568038133954673E-32,1.0165986943511567E-31,-5.273800207699952E-32,-3.638057188251969E-32
93,9.983620104804896E-32,-4.42824805073248E-32,4.2013924881568464E-32,1.0642084904503358E-31,-5.500605417907142E-32,-3.586019070804789E-32
94,1.0432169580532658E-31,-4.8135463682025625E-32,4.579714357693686E-32,1.1130121239833399E-31,-5.725205534892673E-32,-3.521570734567907E-32
94.99999999999999,1.0888624802475488E-31,-5.235579379368301E-32,4.995059873929043E-32,1.1628336148553355E-31,-5.946565500603622E-32,-3.44488365766374E-32
96,1.1350517972984062E-31,-5.697739402616834E-32,5.450926358132449E-32,1.2134396092269346E-31,-6.16362416413245E-32,-3.356336330366889E-32
97,1.1814677201964497E-31,-6.203565840701122E-32,5.950974687812853E-32,1.2645275588091735E-31,-6.375440923328189E-32,-3.256110772086718E-32
97.99999999999999,1.2277078328527858E-31,-6.756634732673545E-32,6.498940000206479E-32,1.315707713534682E-31,-6.580849459924327E-32,-3.1450396438915477E-32
98.99999999999999,1.2732694681907395E-31,-7.3605029574607E-32,7.09853883869359E-32,1.3664916528280425E-31,-6.779303799170128E-32,-3.023461909987284E-32
100,1.3175317875929814E-31,-8.018478805602405E-32,7.753294584847222E-32,1.41627139332735E-31,-6.969726949320564E-32,-2.892168056627897E-32
100.99999999999999,1.3597381784817656E-31,-8.733393878650204E-32,8.46625787177154E-32,1.4643020975652276E-31,-7.151719961801717E-32,-2.7518702747176E-32
101.99999999999999,1.398981732350522E-31,-9.507272675153046E-32,9.239721372497799E-32,1.5096871248636235E-31,-7.324553332232258E-32,-2.603340637497368E-32
103,1.4341910722097895E-31,-1.0340879720758882E-31,1.0074743075072223E-31,1.5513618404235644E-31,-7.487890003812037E-32,-2.4475138017617444E-32
103.99999999999999,1.4641270492429027E-31,-1.1233148313949906E-31,1.097058665870162E-31,1.588092533897928E-31,-7.641244725323166E-32,-2.2851556592575548E-32
104.99999999999999,1.4873938225412436E-31,-1.218046652378572E-31,1.1923986050296364E-31,1.6184812125731574E-31,-7.784441020686596E-32,-2.1171394423409623E-32
106,1.5024666392202745E-31,-1.317583736841238E-31,1.2928324455987936E-31,1.6409956679893332E-31,-7.917158942647317E-32,-1.9444712325012415E-32
106.99999999999999,1.507760560372719E-31,-1.4207931008075775E-31,1.397262171483271E-31,1.6540365948140637E-31,-8.039568054272273E-32,-1.7677827492787753E-32
107.99999999999999,1.5017262061135866E-31,-1.5260199187399018E-31,1.504066529412575E-31,1.6560318551306776E-31,-8.151472777206749E-32,-1.5878868556571017E-32
109,1.483011609113637E-31,-1.6310050617261816E-31,1.6110144299243356E-31,1.645597441938526E-31,-8.253282712822236E-32,-1.405752306297711E-32
109.99999999999999,1.45066692832384E-31,-1.7328589498499868E-31,1.7152340394810603E-31,1.6217463969860683E-31,-8.345103292947371E-32,-1.2218273113441881E-32
110.99999999999999,1.404394402972894E-31,-1.8280882483597565E-31,1.8132349546584628E-31,1.584139487527573E-31,-8.427024091527242E-32,-1.0368609599667101E-32
112,1.3448314583914743E-31,-1.912731839742558E-31,1.9010460058847675E-31,1.53337112899079E-31,-8.499327958206295E-32,-8.515466776434847E-33
112.99999999999999,1.2738100978176496E-31,-1.9826128752869056E-31,1.9744545269403586E-31,1.4712421163481444E-31,-8.562464511625764E-32,-6.663632751740584E-33
113.99999999999999,1.194534603505724E-31,-2.033740525652029E-31,2.0294189754395954E-31,1.4009407970065904E-31,-8.61678736219523E-32,-4.81598212309825E-33
115,1.1115911406715564E-31,-2.0627693314689054E-31,2.062528162666025E-31,1.3270650807425154E-31,-8.662711379856276E-32,-2.9788386679416932E-33
115.99999999999999,1.0308027701043124E-31,-2.0675295811174336E-31,2.07154542342616E-31,1.2554868665220215E-31,-8.700542166272362E-32,-1.1549859558983368E-33
116.99999999999999,9.588518392974621E-32,-2.047436660098464E-31,2.0558217778971046E-31,1.192977916748175E-31,-8.730780712333638E-32,6.536215551495672E-34
118,9.027191100650182E-32,-2.003760395271351E-31,2.016594186105027E-31,1.1466478101693605E-31,-8.753722635729847E-32,2.4432286519168747E-33
118.99999999999999,8.691345088603088E-32,-1.9396623678640935E-31,1.9570242303050734E-31,1.1233949145582314E-31,-8.76985383035586E-32,4.21261740241371E-33
120,8.640074340466743E-32,-1.859992138487126E-31,1.8820164845742835E-31,1.1293221197885506E-31,-8.779553601523859E-32,5.96109590612551E-33
121,8.920757137967618E-32,-1.7709383492270537E-31,1.797878735105005E-31,1.1693724044134163E-31,-8.783501751280376E-32,7.687212088607451E-33
121.99999999999999,9.566628652237304E-32,-1.679562563519857E-31,1.7118581183637738E-31,1.247078528407424E-31,-8.781554059155375E-32,9.391341780734017E-33
122.99999999999999,1.0598125416295932E-31,-1.5934753651588343E-31,1.631823431899877E-31,1.3646764003149186E-31,-8.774323388394009E-32,1.1070675585565666E-32
123.99999999999999,1.2022958500363896E-31,-1.5206094572702962E-31,1.5660421214950031E-31,1.5231095678821403E-31,-8.762106440356451E-32,1.2730279288727262E-32
125,1.3839037029895943E-31,-1.4690812142518213E-31,1.5230469732742966E-31,1.722295022627025E-31,-8.745131761702767E-32,1.4365417488385388E-32
126,1.603457225834063E-31,-1.4474143259806688E-31,1.5118732104690687E-31,1.9611332713870776E-31,-8.723941331109407E-32,1.5980588536080974E-32
127,1.85882179191569E-31,-1.4646308333698126E-31,1.542154321071546E-31,2.2374806750672046E-31,-8.698478887580188E-32,1.757531271626939E-32
127.99999999999999,2.1466193065013455E-31,-1.5307134793383442E-31,1.62460009614351E-31,2.5478398202982905E-31,-8.669296019527728E-32,1.9151526503039175E-32
129,2.4616797170561897E-31,-1.6567538435384698E-31,1.7711540248224954E-31,2.8867426803628502E-31,-8.636338454396152E-32,2.071054282644692E-32
129.99999999999997,2.796088489383959E-31,-1.8551996257349895E-31,1.9952304338166582E-31,3.245727568632406E-31,-8.599877807284029E-32,2.2252918021131678E-32
130.99999999999997,3.137773541926303E-31,-2.1395279596713418E-31,2.311355632816071E-31,3.611815556876015E-31,-8.56009076473835E-32,2.3782790302697782E-32
132,3.4688479595252154E-31,-2.5233097085704042E-31,2.734124876202064E-31,3.965708197246278E-31,-8.517087251138636E-32,2.529952595150146E-32
133,3.7636620937290413E-31,-3.0179383041857328E-31,3.2757505059627675E-31,4.27973165351899E-31,-8.470912674641969E-32,2.680759071115655E-32
134,3.987528731156874E-31,-3.628814650975437E-31,3.941897493422871E-31,4.516459870969681E-31,-8.421914573033266E-32,2.8305306159773797E-32
135,4.097453933905737E-31,-4.349430309605929E-31,4.72533839888882E-31,4.62955891284074E-31,-8.369908595361863E-32,2.9798427480421515E-32
135.99999999999997,4.0464713703536145E-31,-5.154780153493766E-31,5.59883578240926E-31,4.568502081811065E-31,-8.314885123596607E-32,3.1288381106516894E-32
136.99999999999997,3.793467563760274E-31,-5.99628554043021E-31,6.509702296194174E-31,4.289233691985806E-31,-8.257189437982198E-32,3.2774923286922306E-32
138,3.317411017284282E-31,-6.803444131532313E-31,7.381722647663629E-31,3.769505488113334E-31,-8.196469616916227E-32,3.4262449932910885E-32
139,2.6305375216504285E-31,-7.49538166376663E-31,8.127666888162152E-31,3.0230678638461054E-31,-8.132786317874183E-32,3.5752701322473485E-32
140,1.7825097858506924E-31,-8.00110148333213E-31,8.671216940101367E-31,2.1040266993330652E-31,-8.066168430506227E-32,3.7249028242852556E-32
141,8.499761176910264E-32,-8.279434323158048E-31,8.96842186977229E-31,1.095446080366348E-31,-7.996384915066542E-32,3.875130571923403E-32
141.99999999999997,-8.404763921251576E-33,-8.328042422284804E-31,9.017323951990883E-31,8.701848496549058E-33,-7.923470099672151E-32,4.026534239568461E-32
142.99999999999997,-9.508844316873325E-32,-8.177599613344218E-31,8.851512715359973E-31,-8.47251805605715E-32,-7.847181283709031E-32,4.179030574601091E-32
144,-1.707097233849249E-31,-7.876972915518488E-31,8.52408241831358E-31,-1.6607464008145631E-31,-7.767326085511917E-32,4.3330786796374466E-32
145,-2.334649703776221E-31,-7.477990472850983E-31,8.091157783732774E-31,-2.3342905028768564E-31,-7.683820626470036E-32,4.488682908108395E-32
146,-2.834669717269825E-31,-7.025468784302122E-31,7.601166719738947E-31,-2.8693645648349947E-31,-7.596351882036183E-32,4.6462193693873543E-32
147,-3.2193995710009256E-31,-6.553232798122832E-31,7.090597193578157E-31,-3.279388962909346E-31,-7.504562912369495E-32,4.8059130839470783E-32
147.99999999999997,-3.505839311501835E-31,-6.084339273557932E-31,6.584280107749604E-31,-3.582841359958822E-31,-7.408243093879297E-32,4.96799489121805E-32
148.99999999999997,-3.711647767361408E-31,-5.632949205243257E-31,6.09743258765971E-31,-3.7988548248336695E-31,-7.307127900310513E-32,5.132781841699426E-32
150,-3.852907098847709E-31,-5.206730158181747E-31,5.638271542535104E-31,-3.944823585840125E-31,-7.200654333762781E-32,5.300218609672985E-32
151,-3.9433893244901064E-31,-4.809118428221618E-31,5.210458037857883E-31,-4.035598354060567E-31,-7.088406687993969E-32,5.470767692355673E-32
152,-3.994323702657244E-31,-4.440791418011612E-31,4.814697305056819E-31,-4.0832721384966785E-31,-6.969943382093324E-32,5.644449508381965E-32
153,-4.014710235686705E-31,-4.100823821321435E-31,4.449984538812936E-31,-4.097505201873814E-31,-6.844665425794951E-32,5.821503386840743E-32
153.99999999999997,-4.01160639456999E-31,-3.7874321470212946E-31,4.114401521580179E-31,-4.085844096999811E-31,-6.711942928559993E-32,6.00215361088624E-32
154.99999999999997,-3.99050854861609E-31,-3.4984366088669157E-31,3.8056281546375386E-31,-4.054135892529979E-31,-6.571027956473161E-32,6.186420737446212E-32
156,-3.955727639026416E-31,-3.231523476984274E-31,3.5212162317476654E-31,-4.006927259838726E-31,-6.421138178841975E-32,6.374621911724577E-32
157,-3.9106051693235705E-31,-2.9844273889453916E-31,3.258798720754974E-31,-3.947698345075344E-31,-6.261391955540328E-32,6.56667248496719E-32
158,-3.8577759736181727E-31,-2.754998886811056E-31,3.0161585577298125E-31,-3.8791395823206505E-31,-6.090735281969599E-32,6.762615784131781E-32
159,-3.7993499033310944E-31,-2.5412365662045025E-31,2.7912791909005896E-31,-3.8033380180034145E-31,-5.908079229581423E-32,6.962437025170825E-32
159.99999999999997,-3.7370691856048542E-31,-2.341292336336022E-31,2.582357049408467E-31,-3.7219388511298385E-31,-5.712061738700161E-32,7.166058787024672E-32
160.99999999999997,-3.672438086683527E-31,-2.15345321508168E-31,2.3878064821145035E-31,-3.6362726843466573E-31,-5.501350445177819E-32,7.373194432010203E-32
162,-3.6068138668832743E-31,-1.976092879971575E-31,2.2062321340940675E-31,-3.547418377163945E-31,-5.27416651414878E-32,7.583593720600895E-32
163,-3.5415872982601473E-31,-1.8076056964730588E-31,2.0364159502373333E-31,-3.4563858762327015E-31,-5.028741289311112E-32,7.796680643520993E-32
164,-3.4782544301096574E-31,-1.6463243861546001E-31,1.8773005905366785E-31,-3.3641198056297287E-31,-4.762918373475334E-32,8.011745862081075E-32
165,-3.4186418850050318E-31,-1.4903208228750258E-31,1.7279248867476715E-31,-3.27170795695522E-31,-4.4740748466573507E-32,8.228014451545462E-32
165.99999999999997,-3.3651332006500315E-31,-1.3371297571337715E-31,1.5873771725854097E-31,-3.180489024331647E-31,-4.159644137604306E-32,8.44391585315327E-32
166.99999999999997,-3.321044124213775E-31,-1.183146755985965E-31,1.4546362306429928E-31,-3.0923542802778027E-31,-3.8164884965837876E-32,8.65767042162263E-32
168,-3.2911895004604033E-31,-1.0224401308316833E-31,1.3282811318177822E-31,-3.0101953105577673E-31,-3.44085102113926E-32,8.866726212966859E-32
169,-3.2826373786154004E-31,-8.439508215521463E-32,1.2056349697769824E-31,-2.938777447554588E-31,-3.028770547198129E-32,9.06784385958511E-32
170,-3.304994818489135E-31,-6.246557231158142E-32,1.0804337595522338E-31,-2.88629848508451E-31,-2.5755269158956774E-32,9.256445400318398E-32
171,-3.3651741560477766E-31,-3.1119290464255594E-32,9.352606689408095E-32,-2.8664609569542085E-31,-2.0760717237438172E-32,9.4264484529386E-32
171.99999999999997,-3.422808597367129E-31,2.2577019716721217E-32,7.160636655877706E-32,-2.8925304039755807E-31,-1.5247983847586162E-32,9.569548467778889E-32
172.99999999999997,-3.1329525614119805E-31,1.1802126405366603E-31,2.8144273204963644E-32,-2.884691433743261E-31,-9.160631818341925E-33,9.674511473774822E-32
174,-1.7320370985331017E-31,1.794508629604699E-31,-2.651027561830678E-32,-2.414136875367388E-31,-2.4459590092189202E-33,9.726038204118184E-32
175,-6.973790213063599E-32,9.935459759090853E-32,-2.326187137207415E-32,-1.7706524343394757E-31,4.93349366956829E-33,9.703413374328903E-32
176,-6.121990268709577E-32,3.345871901030204E-32,-4.338895852742534E-33,-1.4896649647074493E-31,1.2978242899993578E-32,9.578878553595467E-32
177,-6.849683094027975E-32,5.7880271276193206E-33,5.0213540994797245E-33,-1.3446254260452094E-31,2.1614493475868341E-32,9.315991730022169E-32
177.99999999999997,-7.229135758783241E-32,-4.6755163635002394E-33,8.103685179907047E-33,-1.2233404998723266E-31,3.0629434552941216E-32,8.869052789432195E-32
178.99999999999997,-7.153679798510013E-32,-7.990055077557955E-33,8.218695958336599E-33,-1.1008013331998236E-31,3.9572514820120984E-32,8.185674506734148E-32
180,-6.734651064992601E-32,-8.217722107732214E-33,7.038041053565579E-33,-9.724198245806781E-32,4.762822371702853E-32,7.217148551873899E-32
181,-6.070575560105551E-32,-7.130232824430078E-33,5.4031049780995666E-33,-8.380513468201585E-32,5.351151034088935E-32,5.942382056028276E-32
182,-5.229674782507729E-32,-5.5833769470110715E-33,3.770274511373659E-33,-6.984608502238297E-32,5.552607840587244E-32,4.409296395307104E-32
183,-4.2581705267493525E-32,-4.030032066461296E-33,2.4067734978849895E-33,-5.545351854707601E-32,5.204146975413034E-32,2.779030904014779E-32
183.99999999999997,-3.1880824797872517E-32,-2.731112948001413E-33,1.4817572931035902E-33,-4.070945548328852E-32,4.2414813664793265E-32,1.32745651711022E-32
184.99999999999997,-2.0425651068634924E-32,-1.8481707019242873E-33,1.1093870330240012E-33,-2.568894860348331E-32,2.7854090440366247E-32,3.553133621555214E-33
