% Model:              3D-Au-Plate.mph
% Version:            COMSOL 6.2.0.339
% Date:               Nov 28 2025, 15:10
% Dimension:          1
% Nodes:              171
% Expressions:        2
% Description:        Table graph
% R (nm),0.5*real(conj(px)*d(ewfd.Ebx,x))+0.5*real(conj(py)*d(ewfd.Eby,x))+0.5*real(conj(pz)*d(ewfd.Ebz,x)) (N), Point: (0, 0, 0),0.5*real(conj(mx)*d(ewfd.Hbx,x)+conj(my)*d(ewfd.Hby,x)+conj(mz)*d(ewfd.Hbz,x))*mu0_const (N), Point: (0, 0, 0)
100,1.9237322034595388E-25,8.533219429909484E-26
100.5,2.023185245142055E-25,9.13569866787013E-26
100.99999999999999,2.127323810459838E-25,9.784915710650878E-26
101.49999999999999,2.2360229515724716E-25,1.0477618331254256E-25
101.99999999999999,2.35063130335044E-25,1.1220069801601274E-25
102.5,2.4704655309915655E-25,1.2003924725150556E-25
103,2.59611803012425E-25,1.2846763105928582E-25
103.5,2.7273449130101467E-25,1.374154873584686E-25
103.99999999999999,2.8644829958107665E-25,1.4694436473265205E-25
104.49999999999999,3.006749730665517E-25,1.570433152554853E-25
104.99999999999999,3.15533112818984E-25,1.678692015521716E-25
105.5,3.3086666744870173E-25,1.7926200060263287E-25
106,3.468980648088943E-25,1.9139238221896816E-25
106.5,3.6317365488805435E-25,2.0406731506299708E-25
106.99999999999999,3.7993536721031956E-25,2.173840506988514E-25
107.49999999999999,3.972638793597482E-25,2.315636205443524E-25
107.99999999999999,4.147465992075316E-25,2.4628516362996346E-25
108.5,4.325675403194898E-25,2.6166105362873964E-25
109,4.505348039758576E-25,2.778145978426215E-25
109.5,4.684567125824621E-25,2.9438041904957915E-25
109.99999999999999,4.863040462978511E-25,3.1148078323991204E-25
110.49999999999999,5.041272883370936E-25,3.2947310385875365E-25
110.99999999999999,5.212096314486309E-25,3.475227268993061E-25
111.5,5.377698535162261E-25,3.658980878970058E-25
112,5.536713386740607E-25,3.8473771611801416E-25
112.5,5.684591120899816E-25,4.036122252897778E-25
112.99999999999999,5.823845295941387E-25,4.2256688908514985E-25
113.49999999999999,5.946691488215674E-25,4.414729596322249E-25
113.99999999999999,6.054196232688412E-25,4.602085758290866E-25
114.5,6.144949243122497E-25,4.78788340478541E-25
115,6.219429043920632E-25,4.974867883540701E-25
115.5,6.2701687116599765E-25,5.155190755792172E-25
115.99999999999999,6.300282620598284E-25,5.335586081580968E-25
116.49999999999999,6.311155193173525E-25,5.521090801273561E-25
116.99999999999999,6.297728164837567E-25,5.7111801156719465E-25
117.5,6.262635700617281E-25,5.91273090280847E-25
118,6.2050279189913245E-25,6.134718965618436E-25
118.5,6.128751451383997E-25,6.3953056031464815E-25
118.99999999999999,6.031513817032263E-25,6.716351903324566E-25
119.49999999999999,5.91841561123668E-25,7.115906254978766E-25
120,5.787192883133166E-25,7.623617512789085E-25
120.49999999999999,5.646373383281858E-25,8.235185172248085E-25
121,5.494321678994581E-25,8.872795474000723E-25
121.49999999999999,5.330077472237741E-25,9.336810392504637E-25
121.99999999999999,5.166827008106257E-25,9.411082111765764E-25
122.5,4.999777591462021E-25,9.052310959758255E-25
122.99999999999999,4.834120119258174E-25,8.425907161300512E-25
123.5,4.675110486463624E-25,7.728211319801455E-25
123.99999999999999,4.521369174360729E-25,7.073852470856391E-25
124.5,4.388558935331172E-25,6.4946208114770755E-25
125,4.263612836235814E-25,5.984012341591508E-25
125.49999999999999,4.162870535833165E-25,5.533372667205223E-25
126,4.0830016204302004E-25,5.120026818548261E-25
126.49999999999999,4.035440705889711E-25,4.735266608296587E-25
127,4.0202377465072703E-25,4.367642098984279E-25
127.49999999999999,4.0383038121062186E-25,4.0092461393616796E-25
127.99999999999999,4.1101028998486584E-25,3.648312514164163E-25
128.5,4.231328145615045E-25,3.2937384140152797E-25
129,4.3982327109712565E-25,2.9310326082886534E-25
129.5,4.638568548978782E-25,2.561555412038765E-25
129.99999999999997,4.943291093572629E-25,2.18177988671076E-25
130.5,5.325046853647327E-25,1.7906797138398063E-25
130.99999999999997,5.79164449227457E-25,1.3845358788136572E-25
131.5,6.353220006358023E-25,9.720821657436089E-26
132,7.011894618763447E-25,5.414040570069216E-26
132.5,7.786562199783233E-25,9.508404289389578E-27
133,8.669346898067532E-25,-3.586727431416887E-26
133.49999999999997,9.671760317141752E-25,-8.253207268900478E-26
134,1.079219525187632E-24,-1.290891742670414E-25
134.5,1.2027678533781016E-24,-1.7614683250379147E-25
135,1.3380755397691063E-24,-2.233096270010947E-25
135.5,1.4831222457955443E-24,-2.690500579684377E-25
135.99999999999997,1.6366790623546943E-24,-3.1291001394597426E-25
136.5,1.7955922221556892E-24,-3.5384383990606363E-25
136.99999999999997,1.957450155325351E-24,-3.910934407524379E-25
137.5,2.1189614041383383E-24,-4.2393119385161905E-25
138,2.2766110155425725E-24,-4.51497347642212E-25
138.5,2.425025257358921E-24,-4.723131704122012E-25
139,2.562594484435386E-24,-4.871188604305275E-25
139.49999999999997,2.68423627181632E-24,-4.949578223446501E-25
140,2.7890587108072225E-24,-4.965189400378824E-25
140.5,2.8728042965845654E-24,-4.91095170548567E-25
141,2.9377112492149155E-24,-4.8058368239971625E-25
141.5,2.9813442974720353E-24,-4.64805999173597E-25
141.99999999999997,3.0051962514385213E-24,-4.4463473375260005E-25
142.5,3.0119806360716494E-24,-4.218418801996516E-25
142.99999999999997,3.0021813881266564E-24,-3.964842163013088E-25
143.5,2.978041689847383E-24,-3.6949586506207653E-25
144,2.9411911822346296E-24,-3.415597979911962E-25
144.5,2.894239596354996E-24,-3.130103804483152E-25
145,2.839985089340133E-24,-2.8519413787022907E-25
145.49999999999997,2.779879879052251E-24,-2.5785385178228205E-25
146,2.7144517554948376E-24,-2.3133573796877636E-25
146.5,2.645895817272035E-24,-2.059219740342872E-25
147,2.575181062781848E-24,-1.8157676416714822E-25
147.5,2.5038690987144042E-24,-1.5885572575160626E-25
147.99999999999997,2.432204394602902E-24,-1.373143795865453E-25
148.5,2.3602695922096734E-24,-1.170862248656846E-25
148.99999999999997,2.2897943178313065E-24,-9.835523845193346E-26
149.5,2.2201567299998985E-24,-8.066971403311121E-26
150,2.151686794185447E-24,-6.430843846965374E-26
150.5,2.0856528234374907E-24,-4.939159833894806E-26
151,2.0208414743585816E-24,-3.531427746130207E-26
151.49999999999997,1.9576252024906237E-24,-2.2310913449056807E-26
152,1.8968109998266206E-24,-1.0542379146124133E-26
152.5,1.8371475027754063E-24,6.206752979463985E-28
153,1.779928662893166E-24,1.0747252659809939E-26
153.5,1.7245340327702436E-24,2.0053528685097018E-26
153.99999999999997,1.6710804177028303E-24,2.8722473350361297E-26
154.5,1.618916233093989E-24,3.657874262734611E-26
154.99999999999997,1.5686029261847319E-24,4.3910616628957523E-26
155.5,1.5197049254989383E-24,5.0663059942500846E-26
156,1.4726775174348748E-24,5.671096050531993E-26
156.5,1.4271431077153419E-24,6.228862535102048E-26
157,1.3834582164330394E-24,6.727905832228166E-26
157.49999999999997,1.3400940722199191E-24,7.206068525511353E-26
158,1.298615347273673E-24,7.630843899552749E-26
158.5,1.2582326647825572E-24,8.018793573449396E-26
159,1.2191959259758318E-24,8.362807953609041E-26
159.5,1.1811997296130592E-24,8.684532245272748E-26
159.99999999999997,1.1442690852852667E-24,8.961297924779811E-26
160.5,1.108197563759157E-24,9.216467888535515E-26
160.99999999999997,1.0731379734114332E-24,9.445835468334865E-26
161.5,1.0388276594245041E-24,9.646953388066638E-26
162,1.005237528088367E-24,9.82035454013386E-26
162.5,9.726902690174808E-25,9.967890303104145E-26
163,9.41099018632963E-25,1.0090926742936277E-25
163.49999999999997,9.09601456953014E-25,1.0201730613434323E-25
164,8.793084229856036E-25,1.0283981168851119E-25
164.49999999999997,8.49371194413152E-25,1.033693998884743E-25
165,8.201416339027799E-25,1.039458396925438E-25
165.5,7.915019650053155E-25,1.0407917705160993E-25
165.99999999999997,7.628022262936903E-25,1.0404028586966837E-25
166.5,7.345140419864992E-25,1.0394924832391138E-25
166.99999999999997,7.067782175379058E-25,1.0352343715624262E-25
167.5,6.788440684719122E-25,1.0290909576731512E-25
168,6.505597995568532E-25,1.0205774562541773E-25
168.5,6.223343934318787E-25,1.0088612333646514E-25
169,5.930693866810622E-25,9.957219215808435E-26
169.49999999999997,5.6204709873022425E-25,9.783967459387108E-26
170,5.285720979264315E-25,9.580475067356381E-26
170.49999999999997,4.902187065852024E-25,9.320954505970172E-26
171,4.44443491381353E-25,9.035975805210084E-26
171.5,3.862188749175456E-25,8.71006718850617E-26
171.99999999999997,3.070776565185908E-25,8.374165037456035E-26
172.5,1.9512165364130825E-25,8.130052929419098E-26
172.99999999999997,4.309555891552302E-26,8.197489993355127E-26
173.5,-1.2467744628128855E-25,8.905048158150587E-26
174,-2.2770718778200125E-25,1.0193763102682325E-25
174.5,-2.139088039521622E-25,1.1340370619702852E-25
175,-1.3631661209344354E-25,1.1795973477907517E-25
175.49999999999997,-5.729136968852777E-26,1.1621825320759856E-25
176,1.8716638575941186E-27,1.0977987426137527E-25
176.49999999999997,4.096884797966009E-26,9.844202900398017E-26
177,6.483228008875263E-26,8.217660871382826E-26
177.5,7.849719210026656E-26,6.904095553028351E-26
177.99999999999997,8.49356573075817E-26,7.177526399399061E-26
178.5,8.665874162230425E-26,8.115290914655735E-26
178.99999999999997,8.488640895164638E-26,8.786984894949263E-26
179.5,8.115360776997573E-26,9.105391118098944E-26
180,7.567208040235321E-26,9.219578392357338E-26
180.5,6.934219552927863E-26,9.212049455176422E-26
181,6.255484049980159E-26,9.138626728659736E-26
181.49999999999997,5.542068798588572E-26,9.023269806254628E-26
182,4.8464928083551874E-26,8.875909453264695E-26
182.49999999999997,4.1752872607859995E-26,8.724905610073302E-26
183,3.540939069235668E-26,8.549189093889976E-26
183.5,2.9632811719320427E-26,8.364189553666374E-26
183.99999999999997,2.437707516175705E-26,8.178889603031512E-26
184.5,1.9843991312139359E-26,7.991244156736982E-26
184.99999999999997,1.588207354974891E-26,7.795091457016409E-26
