% Model:              2D-Au-Plate_fromR.mph
% Version:            COMSOL 6.2.0.339
% Date:               Nov 30 2025, 17:02
% Dimension:          1
% Nodes:              176
% Expressions:        3
% Description:        Table graph
% R0 (nm),sum(withsol(sol_name, sigma_spp, setval(M,n, R0,R0)), n, M_from,M_to) (m^2),sum(withsol(sol_name, sigma_sc, setval(M,n, R0,R0)), n, M_from,M_to) (m^2),sum(withsol(sol_name, sigma_air, setval(M,n, R0,R0)), n, M_from,M_to) (m^2)
9.999999999999998,7.073331419475824E-21,1.7579003451785556E-20,1.0505672032309728E-20
11,1.2936310161975998E-20,3.0763476758586303E-20,1.7827166596610296E-20
12,2.2432616630761135E-20,5.180209315625675E-20,2.936947652549555E-20
12.999999999999998,3.7090904353001684E-20,8.447600982252932E-20,4.738510546952769E-20
14,5.902662533013499E-20,1.3292484194759112E-19,7.389821661745618E-20
15,9.077832608976015E-20,2.034625636584606E-19,1.1268423756870051E-19
15.999999999999998,1.3574989596354235E-19,3.0303364229885924E-19,1.6728374633531672E-19
16.999999999999996,1.980705807071855E-19,4.413897416196414E-19,2.4331916091245566E-19
18,2.8293010031088387E-19,6.294378994513594E-19,3.465077991404755E-19
19,3.9569756511673745E-19,8.81208940274066E-19,4.855113751573285E-19
19.999999999999996,5.445921049311873E-19,1.2134489154007627E-18,6.688568104695743E-19
21,7.376676004002395E-19,1.6451752782879456E-18,9.07507677887707E-19
22,9.848348988777974E-19,2.200269043344022E-18,1.2154341444662256E-18
22.999999999999996,1.298930863758626E-18,2.9071617275529175E-18,1.6082308637942905E-18
24,1.692738382375706E-18,3.798837287090519E-18,2.1060989047148098E-18
25,2.1828143803096176E-18,4.911629721636564E-18,2.728815341326943E-18
25.999999999999996,2.7883379824393588E-18,6.2920594794909596E-18,3.503721497051602E-18
26.999999999999996,3.528381930337321E-18,7.988071630620403E-18,4.459689700283085E-18
28,4.429737209633521E-18,1.0062798949196694E-17,5.633061739563168E-18
28.999999999999996,5.517237693709469E-18,1.2579438984092304E-17,7.062201290382835E-18
30,6.8241093610294455E-18,1.5620524244143845E-17,8.796414883114399E-18
30.999999999999996,8.386466525491963E-18,1.927315967501061E-17,1.088669314951865E-17
31.999999999999996,1.0238563257656835E-17,2.363428967703327E-17,1.3395726419376425E-17
33,1.243055430494614E-17,2.88218247513996E-17,1.6391270446453456E-17
33.99999999999999,1.5010382887545825E-17,3.497000661753774E-17,1.995962372999188E-17
35,1.8033976454483648E-17,4.222381990251831E-17,2.4189843448034675E-17
36,2.1562531463211744E-17,5.074829235501272E-17,2.9185760891801E-17
36.99999999999999,2.566570068863967E-17,6.073474567244439E-17,3.5069044983804706E-17
38,3.0424624862760127E-17,7.23926290414532E-17,4.196800417869315E-17
39,3.591519574026613E-17,8.596344396804757E-17,5.004824822778145E-17
39.99999999999999,4.2245670315051946E-17,1.0171919112606022E-16,5.947352081100829E-17
41,4.950510308426748E-17,1.1994982634078723E-16,7.044472325651974E-17
42,5.782089498601956E-17,1.4100319056316607E-16,8.318229557714655E-17
42.99999999999999,6.731608324169138E-17,1.6525301569965974E-16,9.793693245796836E-17
44,7.813414523801845E-17,1.9312322420033264E-16,1.1498907896231416E-16
45,9.04341425167235E-17,2.2509068574063587E-16,1.346565432239125E-16
45.99999999999999,1.0436641019970381E-16,2.6167021008332006E-16,1.5730379988361634E-16
47,1.2014459701261415E-16,3.0345828584976754E-16,1.8331368883715344E-16
48,1.3794661984060136E-16,3.5110568707425402E-16,2.1315906723365272E-16
48.99999999999999,1.5800621123260655E-16,4.0533200560127033E-16,2.473257943686637E-16
50,1.8057734174030686E-16,4.669742602264865E-16,2.8639691848617966E-16
50.99999999999999,2.059155576182347E-16,5.369005235292168E-16,3.3098496591098214E-16
51.99999999999999,2.3430662709424843E-16,6.161162208807002E-16,3.818095937864516E-16
53,2.6606441794842514E-16,7.057301656176172E-16,4.3966574766919176E-16
53.99999999999999,3.015742888258691E-16,8.069868771714921E-16,5.054125883456224E-16
54.99999999999999,3.4116107899901874E-16,9.212267862698546E-16,5.800657072708358E-16
56,3.852450911756985E-16,1.0499563892213784E-15,6.647112980456804E-16
56.99999999999999,4.342888750280427E-16,1.1948389298399485E-15,7.605500548119064E-16
57.99999999999999,4.887431342975028E-16,1.3577165849789133E-15,8.689734506814104E-16
59,5.491033894514686E-16,1.5406048692745548E-15,9.915014798230865E-16
60,6.159746722271327E-16,1.7457989025539623E-15,1.1298242303268285E-15
60.99999999999999,6.899276494789659E-16,1.975683023917213E-15,1.2857553744382475E-15
61.99999999999999,7.715988003922303E-16,2.2330579255572683E-15,1.4614591251650376E-15
63,8.616802665569925E-16,2.5209117383243587E-15,1.6592314717673658E-15
63.99999999999999,9.609035544334317E-16,2.842504597767986E-15,1.8816010433345528E-15
64.99999999999999,1.0701318030674079E-15,3.201563459062623E-15,2.131431655995216E-15
66,1.1901036230575628E-15,3.60208732488301E-15,2.411983701825449E-15
67,1.3217109488114167E-15,4.0484300507495624E-15,2.7267191019381433E-15
67.99999999999999,1.466025411071148E-15,4.545513400462853E-15,3.0794879893917056E-15
69,1.6239361485615124E-15,5.0987241847349145E-15,3.474788036173401E-15
70,1.7966865652493832E-15,5.714022732821362E-15,3.917336167571981E-15
70.99999999999999,1.985220454682536E-15,6.397572381853836E-15,4.4123519271713E-15
72,2.190826624675156E-15,7.156878562984543E-15,4.966051938309389E-15
73,2.4148382136111437E-15,7.999751534127411E-15,5.584913320516266E-15
73.99999999999999,2.658452357015686E-15,8.934850234363832E-15,6.276397877348145E-15
75,2.9233850073335966E-15,9.971986205614272E-15,7.048601198280672E-15
76,3.2108153102567825E-15,1.1121576845651535E-14,7.910761535394751E-15
76.99999999999999,3.522706636034378E-15,1.2395657276990826E-14,8.872950640956446E-15
78,3.8602804054192184E-15,1.3807271945909105E-14,9.946991540489886E-15
79,4.2260117386690464E-15,1.5370967297023462E-14,1.114495555835441E-14
79.99999999999999,4.621427597158938E-15,1.7103202453112057E-14,1.2481774855953123E-14
81,5.048831792887626E-15,1.9022084839800656E-14,1.3973253046913033E-14
82,5.5105903709522E-15,2.1148067884492652E-14,1.563747751354045E-14
82.99999999999999,6.009251793746771E-15,2.350406455758519E-14,1.7494812763838415E-14
84,6.547694698624137E-15,2.611603510858896E-14,1.9568340409964832E-14
85,7.12944098618187E-15,2.901294805681757E-14,2.18835070706357E-14
85.99999999999999,7.758327898126706E-15,3.2228046604456304E-14,2.4469718706329604E-14
87,8.438112050359376E-15,3.579831884394112E-14,2.7360206793581736E-14
88,9.174190766266075E-15,3.976623476035653E-14,3.059204399409045E-14
88.99999999999999,9.973134793330168E-15,4.418045176729787E-14,3.420731697396771E-14
90,1.0840546406461587E-14,4.9094759400061194E-14,3.825421299359959E-14
91,1.1785624485651488E-14,5.457247088487177E-14,4.2786846399220264E-14
91.99999999999999,1.2816782741202683E-14,6.068267670592344E-14,4.786589396472075E-14
93,1.3946332715795828E-14,6.75063573562414E-14,5.3560024640445564E-14
94,1.5187492901395785E-14,7.513376049690388E-14,5.994626759550813E-14
94.99999999999999,1.6555237319145197E-14,8.366565958142911E-14,6.711042226228392E-14
96,1.8067751423553585E-14,9.321615850832604E-14,7.514840708477246E-14
97,1.9746750353338738E-14,1.0391130598465408E-13,8.416455563131536E-14
97.99999999999999,2.1615695968757125E-14,1.1588866800393144E-13,9.427297203517433E-14
98.99999999999999,2.370442619251603E-14,1.2929983556954513E-13,1.0559540937702908E-13
100,2.6042445248257913E-14,1.443048705543706E-13,1.1826242530611267E-13
100.99999999999999,2.866710621271896E-14,1.6107017111184873E-13,1.3240306489912978E-13
101.99999999999999,3.161641250066722E-14,1.797619801198321E-13,1.481455676191648E-13
103,3.493297544247357E-14,2.0053907308072824E-13,1.656060976382547E-13
103.99999999999999,3.866043581908052E-14,2.2353684095571803E-13,1.848764051366376E-13
104.99999999999999,4.284139248344182E-14,2.488519906371539E-13,2.0601059815371194E-13
106,4.751457873695241E-14,2.765220859303923E-13,2.2900750719343985E-13
106.99999999999999,5.271352465742129E-14,3.0648884453934526E-13,2.537753198819239E-13
107.99999999999999,5.84495621148179E-14,3.3856593829847614E-13,2.8011637618365825E-13
109,6.472859437987213E-14,3.724198513749824E-13,3.076912569951103E-13
109.99999999999999,7.151647021053823E-14,4.0751805666192454E-13,3.360015864513863E-13
110.99999999999999,7.874501644024034E-14,4.431239836914588E-13,3.6437896725121837E-13
112,8.630959378484864E-14,4.783181928436336E-13,3.920085990587849E-13
112.99999999999999,9.405629068575852E-14,5.120195100118109E-13,4.179632193260526E-13
113.99999999999999,1.0179558939650618E-13,5.431255470487353E-13,4.413299576522293E-13
115,1.0932503424382205E-13,5.707050186746931E-13,4.613799844308709E-13
115.99999999999999,1.1643368816603072E-13,5.942778890505217E-13,4.778442008844912E-13
116.99999999999999,1.2295237493904564E-13,6.143337341800704E-13,4.91381359241025E-13
118,1.2880143131329127E-13,6.331942301858885E-13,5.043927988725968E-13
118.99999999999999,1.340822958847612E-13,6.565110887353915E-13,5.224287928506304E-13
120,1.3908973342864206E-13,6.93785480030835E-13,5.546957466021928E-13
121,1.437259162309359E-13,7.436444439913076E-13,5.999185277603718E-13
121.99999999999999,1.456926788084444E-13,7.514063559853801E-13,6.05713677176936E-13
122.99999999999999,1.436277586703531E-13,6.844475852606858E-13,5.408198265903326E-13
123.99999999999999,1.4011393744092287E-13,6.033414076924834E-13,4.632274702515604E-13
125,1.3644804015955436E-13,5.379685556380875E-13,4.0152051547853313E-13
126,1.3262380017242204E-13,4.873280881458051E-13,3.547042879733828E-13
127,1.2850105744375639E-13,4.476166354170098E-13,3.1911557797325313E-13
127.99999999999999,1.2399552610065927E-13,4.1725003525964905E-13,2.932545091589895E-13
129,1.190735932966843E-13,3.9639606719445446E-13,2.7732247389777036E-13
129.99999999999997,1.1371020347009864E-13,3.8638316286149325E-13,2.7267295939139476E-13
130.99999999999997,1.0788021515951639E-13,3.893485848278945E-13,2.8146836966837806E-13
132,1.0157018619867383E-13,4.080275409995919E-13,3.0645735480091803E-13
133,9.477910079196971E-14,4.4545494212129986E-13,3.506758413293302E-13
134,8.756349998850841E-14,5.044849500866238E-13,4.169214500981153E-13
135,8.004816210866929E-14,5.86868331524582E-13,5.068201694159129E-13
135.99999999999997,7.248786795179407E-14,6.920754393556442E-13,6.195875714038505E-13
136.99999999999997,6.524967463544177E-14,8.159476082938252E-13,7.506979336583833E-13
138,5.879739491163223E-14,9.499749961241488E-13,8.911776012125168E-13
139,5.358154347398392E-14,1.0820850495294252E-12,1.0285035060554414E-12
140,4.992355711614213E-14,1.1991788178540162E-12,1.1492552607378745E-12
141,4.791047067927669E-14,1.2905518061088621E-12,1.2426413354295855E-12
141.99999999999997,4.738242357819474E-14,1.3504923651519467E-12,1.3031099415737519E-12
142.99999999999997,4.8012454211439955E-14,1.378802320912863E-12,1.3307898667014233E-12
144,4.9416644885011883E-14,1.3794370289145118E-12,1.3300203840294998E-12
145,5.123432912163433E-14,1.358397410739687E-12,1.3071630816180528E-12
146,5.319727665012565E-14,1.3219498664354056E-12,1.26875258978528E-12
147,5.5118719674292326E-14,1.2755452987283464E-12,1.2204265790540543E-12
147.99999999999997,5.688550830961701E-14,1.2234601590605535E-12,1.1665746507509366E-12
148.99999999999997,5.844250995419975E-14,1.16876848577038E-12,1.1103259758161804E-12
150,5.976101391722129E-14,1.1135513878325196E-12,1.0537903739152983E-12
151,6.084980551856993E-14,1.0591565842581719E-12,9.983067787396021E-13
152,6.171172925248781E-14,1.0063656917948304E-12,9.446539625423422E-13
153,6.236238690186302E-14,9.556156831071556E-13,8.932532962052927E-13
153.99999999999997,6.282503257659807E-14,9.070978098830485E-13,8.442727773064503E-13
154.99999999999997,6.311118409113325E-14,8.60840751295802E-13,7.977295672046692E-13
156,6.323437455046852E-14,8.167826513612202E-13,7.535482768107517E-13
157,6.320980294777434E-14,7.748032094098455E-13,7.11593406462071E-13
158,6.304439167109927E-14,7.347672343334157E-13,6.717228426623166E-13
159,6.274487376031643E-14,6.965009984186299E-13,6.337561246583136E-13
159.99999999999997,6.231717652713055E-14,6.59848380506087E-13,5.975312039789565E-13
160.99999999999997,6.175876358450893E-14,6.246506668977498E-13,5.628919033132409E-13
162,6.107636220910364E-14,5.907587682141983E-13,5.296824060050949E-13
163,6.026221579427995E-14,5.580367942889945E-13,4.977745784947146E-13
164,5.93203174982195E-14,5.263651967808005E-13,4.670448792825811E-13
165,5.825156780721601E-14,4.956375459750649E-13,4.373859781678488E-13
165.99999999999997,5.70621274929383E-14,4.65794921766324E-13,4.0873279427338577E-13
166.99999999999997,5.576794314040069E-14,4.368331238916963E-13,3.8106518075129577E-13
168,5.442789488311097E-14,4.0889062897813875E-13,3.5446273409502794E-13
169,5.3167937639001896E-14,3.8241268695039757E-13,3.292447493113956E-13
170,5.229353027732309E-14,3.5863228930411213E-13,3.0633875902678915E-13
171,5.2571226675563115E-14,3.411498944537179E-13,2.885786677781546E-13
171.99999999999997,5.6471550485111203E-14,3.422694401638483E-13,2.85797889678737E-13
172.99999999999997,7.341742528760685E-14,4.0378852738050796E-13,3.30371102092901E-13
174,1.0901457963058852E-13,5.317601269428219E-13,4.2274554731223336E-13
175,1.1291627548596603E-13,5.14331237958863E-13,4.01414962472897E-13
176,9.632422081156327E-14,4.2673906849009325E-13,3.3041484767852985E-13
177,8.302876606209884E-14,3.6486420644028014E-13,2.8183544037818103E-13
177.99999999999997,7.436873308845174E-14,3.347098264028705E-13,2.6034109331441863E-13
178.99999999999997,6.722795336030604E-14,3.0489921426700813E-13,2.3767126090670217E-13
180,6.205345878184396E-14,2.832338853770503E-13,2.2118042659520637E-13
181,5.87082269000431E-14,2.721458648239731E-13,2.1343763792393004E-13
182,5.711788462370133E-14,2.7099716218850004E-13,2.1387927756479868E-13
183,5.725253800788721E-14,2.7846216433750125E-13,2.2120962632961388E-13
183.99999999999997,5.887033694200824E-14,2.917238167585769E-13,2.3285347981656855E-13
184.99999999999997,6.136543247954666E-14,3.0647943772501156E-13,2.4511400524546477E-13
