% Model:              2D-Au-Plate_fromR.mph
% Version:            COMSOL 6.2.0.339
% Date:               Nov 30 2025, 17:30
% Dimension:          1
% Nodes:              176
% Expressions:        5
% Description:        Table graph
% R0 (nm),C_ED (m^2),C_MD (m^2),C_EQ (m^2),C_MQ (m^2),C (m^2)
9.999999999999998,8.838089594148234E-21,2.6322121775021327E-25,1.3897991096784123E-26,2.962521137765372E-33,8.838366713360045E-21
11,1.6154574610187814E-20,6.825393389237262E-25,3.5453562134029927E-26,1.1444220652888213E-32,1.6155292603100315E-20
12,2.8062334847566345E-20,1.6291838328057198E-24,8.294576463732421E-26,3.9368505757291146E-32,2.806404697720316E-20
12.999999999999998,4.6707252163904815E-20,3.6276580625271114E-24,1.806054079927753E-25,1.2286862788635678E-31,4.6711060427498206E-20
14,7.496136090096845E-20,7.613550030458935E-24,3.701547930464284E-25,3.529799905239805E-31,7.496934460614493E-20
15,1.1659163899370595E-19,1.5184975710865534E-23,7.204331876869611E-25,9.441764029126942E-31,1.166075444035487E-19
15.999999999999998,1.7645832342790022E-19,2.897192078779661E-23,1.3410291404721766E-24,2.373395780146979E-30,1.7648863638020189E-19
16.999999999999996,2.6073692911750077E-19,5.316501124799471E-23,2.4010250103783936E-24,5.6491647033419455E-30,2.6079249515940836E-19
18,3.7717883752389434E-19,9.425538205079523E-23,4.154491272909965E-24,1.281196438446929E-29,3.7727724741003E-19
19,5.353962372686336E-19,1.620490977125048E-22,6.974168237760061E-24,2.7831915990293004E-29,5.355652605624158E-19
19.999999999999996,7.472009023997622E-19,2.7103705595436895E-22,1.139582700374892E-23,5.816923022517273E-29,7.474833353408896E-19
21,1.0269657949207885E-18,4.422110392168028E-22,1.817542657968432E-23,1.1741162393119715E-28,1.0274261815039966E-18
22,1.3920459465330548E-18,7.054441664641802E-22,2.836217859913351E-23,2.296207285580047E-28,1.3927797531077388E-18
22.999999999999996,1.8632451779935832E-18,1.1025719448711179E-21,4.3390930291126E-23,4.363349458084619E-28,1.8643911413050802E-18
24,2.4653227568896245E-18,1.6913309931061492E-21,6.519712066428766E-23,8.0761863378211765E-28,2.4670792858110136E-18
25,3.227600278566364E-18,2.550365038949227E-21,9.636132864861477E-23,1.4591768968089124E-27,3.230247006393139E-18
25.999999999999996,4.184571755903734E-18,3.785484507021175E-21,1.4028418593175173E-22,2.578410469795853E-27,4.1884975271750974E-18
26.999999999999996,5.3766339967469656E-18,5.537490549873789E-21,2.014036287524301E-22,4.4634713671964164E-27,5.382372895389063E-18
28,6.850871285664352E-18,7.991861677748419E-21,2.854564104099244E-22,7.580956365877706E-27,6.8591486113334666E-18
28.999999999999996,8.6619012762015E-18,1.1390620625223103E-20,3.9979269430076675E-22,1.2649984244790512E-26,8.673691702171007E-18
30,1.0872884348883002E-17,1.6046802987823525E-20,5.537598867315601E-22,2.0763298693902177E-26,1.0889484932520854E-17
30.999999999999996,1.3556548727428706E-17,2.2362205099122432E-20,7.591553276579238E-22,3.3559601774058294E-26,1.3579670121415088E-17
31.999999999999996,1.6796263824626597E-17,3.084847296636941E-20,1.0307560589254669E-21,5.346622632864277E-26,1.6828143107118115E-17
33,2.0687551434010407E-17,4.2152989854556135E-20,1.3869812500072534E-21,8.403768149665485E-26,2.0731091489152653E-17
33.99999999999999,2.533914823639787E-17,5.708910990474286E-20,1.8506180061039506E-21,1.3042306502015229E-25,2.539808809473178E-17
35,3.087482578193811E-17,7.66733075291692E-20,2.4497239668574854E-21,2.0000664532588446E-25,3.0953949013440784E-17
36,3.743495259893186E-17,1.0216823855887394E-19,3.2186639448443336E-21,3.032776442793308E-25,3.754033980471322E-17
36.99999999999999,4.517815556684824E-17,1.3513433205986064E-19,4.199293635653461E-21,4.550029797820689E-25,4.531748964754673E-17
38,5.4283957859821824E-17,1.7749100292314732E-19,5.442458742413593E-21,6.757974948491845E-25,5.4466891997284884E-17
39,6.495358233910367E-17,2.3158778187182147E-19,7.009397105929662E-21,9.942107476390485E-25,6.519218051229216E-17
39.99999999999999,7.741443706411669E-17,3.0028955054477094E-19,8.974014634149692E-21,1.4494847754756438E-24,7.772370207878039E-17
41,9.19203181071014E-17,3.8707461806052323E-19,1.1424588404977508E-20,2.0951736287138944E-24,9.231881940874053E-17
42,1.0875635408700052E-16,4.961510858854258E-19,1.4466708481308887E-20,3.003872516692634E-24,1.0926697488523977E-16
42.99999999999999,1.2824077334495685E-16,6.325922125919657E-19,1.82258895361274E-20,4.273357482331575E-24,1.2889159572044243E-16
44,1.5072885456076283E-16,8.024936671217922E-19,2.285098967321528E-20,6.034516941130205E-24,1.5155420525207478E-16
45,1.7661628081672683E-16,1.0131586371316901E-18,2.851792354052987E-20,8.461556766251988E-24,1.776579658389558E-16
45.99999999999999,2.063424532276386E-16,1.2733103105302082E-18,3.543371794888045E-20,1.1785055637169015E-23,2.0765120904117333E-16
47,2.4039744162407112E-16,1.5933437555984585E-18,4.38422088769465E-20,1.6308620098865786E-23,2.4203464389716665E-16
48,2.7932233863975757E-16,1.9856092892974413E-18,5.402833570863926E-20,2.242999729504082E-23,2.8136199869476094E-16
48.99999999999999,3.2371935115058827E-16,2.464754815853364E-18,6.632590136157675E-20,3.066780590778454E-23,3.262504625356091E-16
50,3.7425364397891417E-16,3.0481069119976823E-18,8.112375180624663E-20,4.169518910688926E-23,3.773829163379072E-16
50.99999999999999,4.316596907032578E-16,3.756135544283801E-18,9.887330141929366E-20,5.638206824510126E-23,4.355147559310291E-16
51.99999999999999,4.967480090441932E-16,4.6129543678934385E-18,1.2009808315594402E-19,7.58479971375578E-23,5.014811373432396E-16
53,5.704163166394157E-16,5.646941558817583E-18,1.4540599413767255E-19,1.015280647813482E-22,5.762087657204358E-16
53.99999999999999,6.536512269265199E-16,6.891446551917144E-18,1.7549714341133214E-19,1.3525499254983046E-22,6.607183058768409E-16
54.99999999999999,7.475378073469223E-16,8.385567680628818E-18,2.111779717913764E-19,1.7936059207579546E-22,7.561347323599347E-16
56,8.532714051808344E-16,1.0175145652204713E-17,2.533760879241129E-19,2.368017652672047E-22,8.637001637227286E-16
56.99999999999999,9.72165254276139E-16,1.231380011483556E-17,3.031554112601008E-19,3.11315170598579E-22,9.84782521117405E-16
57.99999999999999,1.1056602604978594E-15,1.486420971354238E-17,3.617331550101027E-19,4.0760812267525494E-22,1.1208866109745345E-15
59,1.2553355393143172E-15,1.7899565264210012E-17,4.304976304443555E-19,5.315927952120221E-22,1.2736661338017668E-15
60,1.4229312859421042E-15,2.15053137913089E-17,5.11038177151196E-19,6.906732030785787E-22,1.4449483285837675E-15
60.99999999999999,1.6103395327860214E-15,2.5781042774989834E-17,6.05150022536102E-19,8.940948534274325E-22,1.6367266196784006E-15
61.99999999999999,1.819644227458095E-15,3.084279000137762E-17,7.14882382448385E-19,1.1533725444086833E-21,1.8512030532144654E-15
63,2.0531149019298372E-15,3.682570486290444E-17,8.425441529989767E-19,1.4828108066648818E-21,2.0907846337565473E-15
63.99999999999999,2.313238864299234E-15,4.3887202692713476E-17,9.907498785167469E-19,1.9001373983326152E-21,2.3581187170078624E-15
64.99999999999999,2.602740246811756E-15,5.221033267135586E-17,1.1624543145781077E-18,2.4272657905270097E-21,2.656115461063481E-15
66,2.924564907841857E-15,6.20081024525314E-17,1.3609473909214922E-18,3.0912297193617463E-21,2.987937048915029E-15
67,3.2819587967398233E-15,7.352842283408953E-17,1.5899552349989427E-18,3.9253034723094844E-21,3.357081100112384E-15
67.99999999999999,3.6784605122661135E-15,8.705959198528067E-17,1.853646581494613E-18,4.970353169000976E-21,3.767378721186058E-15
69,4.1178887117628436E-15,1.0293687904568725E-16,2.156626414917438E-18,6.276480224560045E-21,4.222988493703673E-15
70,4.6044692763967624E-15,1.2155055668637584E-16,2.5041073744897904E-18,7.904975715148182E-21,4.728531845433343E-15
70.99999999999999,5.1427593640576694E-15,1.4335489968872176E-16,2.901824662305625E-18,9.930701873842617E-21,5.289026019110571E-15
72,5.737711750744883E-15,1.6887821617562912E-16,3.356116789257316E-18,1.2444913118436071E-20,5.909958528622888E-15
73,6.3947616284456745E-15,1.9873621485907492E-16,3.87406190700044E-18,1.5558669124814572E-20,6.597387463880875E-15
73.99999999999999,7.119801997616141E-15,2.3364610924707104E-16,4.463441549798145E-18,1.94069045666726E-20,7.357930955317577E-15
75,7.919247372475795E-15,2.744439533254878E-16,5.132833247222135E-18,2.4153325976697272E-20,8.19884831237448E-15
76,8.800102926422317E-15,3.22105171854231E-16,5.891728164155004E-18,2.999616868118926E-20,9.128129822609383E-15
76.99999999999999,9.769979381439597E-15,3.777682163872073E-16,6.75053091432901E-18,3.717523158256632E-20,1.0154535303972715E-14
78,1.083709506333927E-14,4.427626876262844E-16,7.720540351847821E-18,4.59800676201509E-20,1.1287624271385024E-14
79,1.2010638751701307E-14,5.186446871802007E-16,8.814709733683866E-18,5.675976479286508E-20,1.2538154908379985E-14
79.99999999999999,1.3300348904595002E-14,6.072335841900218E-16,1.004672205636511E-17,6.993484500010682E-20,1.391769914568639E-14
81,1.471696824692229E-14,7.106612344286273E-16,1.1431956610450581E-17,8.601076604968003E-20,1.5439147448727415E-14
82,1.6272231038442175E-14,8.314286948924386E-16,1.298756467362995E-17,1.0559451866555475E-19,1.7116752892526907E-14
82.99999999999999,1.7978878538707053E-14,9.724707393377064E-16,1.4732481503652192E-17,1.2941379582067543E-19,1.896621117334423E-14
84,1.9850856197774954E-14,1.1372380837811078E-15,1.6688098777566014E-17,1.5833982743798274E-19,2.1004940720161066E-14
85,2.1903417061989703E-14,1.3297891511824264E-15,1.8878714286569862E-17,1.934136712213864E-19,2.3252278341129922E-14
85.99999999999999,2.4153151187801434E-14,1.55490579081832E-15,2.1331900797371035E-17,2.3587783072119444E-19,2.5729624757247847E-14
87,2.6618022380247782E-14,1.8182296930782327E-15,2.4079042949006437E-17,2.872123017009425E-19,2.8460618328576725E-14
88,2.931770773603535E-14,2.1264209496442633E-15,2.7157101963579978E-17,3.4917594269488165E-19,3.147163496358589E-14
88.99999999999999,3.2273805465385955E-14,2.487348405282936E-15,3.0610151974503584E-17,4.238550951594424E-19,3.4792187877738556E-14
90,3.550909520518707E-14,2.910333946886326E-15,3.4488413067470096E-17,5.137196425760022E-19,3.845443128478344E-14
91,3.904874886825743E-14,3.406404207137467E-15,3.885390783242042E-17,6.216824741536996E-19,4.2494628665701477E-14
91.99999999999999,4.291905216484768E-14,3.988649198322346E-15,4.377909206016306E-17,7.51171032471204E-19,4.6952231626262657E-14
93,4.714859014083672E-14,4.672580742989218E-15,4.9353930867084024E-17,9.061997978128228E-19,5.187143101449084E-14
94,5.1766823449154126E-14,5.4766108651226634E-15,5.568542585164733E-17,1.0914541583886718E-18,5.730021119428682E-14
94.99999999999999,5.6804392408238674E-14,6.42258537427431E-15,6.29049894234221E-17,1.3123695396621187E-18,6.329119514147606E-14
96,6.229220042013872E-14,7.53642170658099E-15,7.117271992281414E-17,1.5752113671035577E-18,6.990137005800963E-14
97,6.826028507162602E-14,8.84882032493586E-15,8.068138171351588E-17,1.887150974697792E-18,7.719167392925009E-14
97.99999999999999,7.473627271762256E-14,1.0396170612369932E-14,9.166697906461269E-17,2.2563047665334554E-18,8.522636661382364E-14
98.99999999999999,8.174424370633714E-14,1.2221320956959045E-14,1.0441413194447577E-16,2.6917584307542304E-18,9.407267055367143E-14
100,8.93002597223918E-14,1.4374845696387678E-14,1.1926226735140276E-16,3.2035292077984017E-18,1.0379757121533868E-13
100.99999999999999,9.741068282325144E-14,1.6915765570416262E-14,1.3661908109467665E-16,3.802418847304044E-18,1.1446686989360969E-13
101.99999999999999,1.0606565715097339E-13,1.9912981439590578E-14,1.5696044925319165E-16,4.499800126490417E-18,1.2614009883994365E-13
103,1.1523453898337579E-13,2.34459606841438E-14,1.808424509668088E-16,5.307186000375212E-18,1.388666493044868E-13
103.99999999999999,1.2485746839043928E-13,2.760568051706573E-14,2.0889213090311877E-16,6.235664052300719E-18,1.5267827670246044E-13
104.99999999999999,1.3483821592566772E-13,3.249492640550394E-14,2.418084082261994E-16,7.295068728589041E-18,1.6758224580812645E-13
106,1.4503405890001865E-13,3.8228489554147396E-14,2.8033882859912296E-16,8.49294293771818E-18,1.835513802257029E-13
106.99999999999999,1.5524861751123968E-13,4.4931790332357895E-14,3.2524029334521253E-16,9.833369622981254E-18,2.0051548150656577E-13
107.99999999999999,1.6522289922841516E-13,5.27409036394374E-14,3.772238694649557E-16,1.1315854277751217E-17,2.1835234259159529E-13
109,1.7463533261605802E-13,6.18009845379757E-14,4.368794178826947E-16,1.2934495696215279E-17,2.3688613106761263E-13
109.99999999999999,1.831048046274223E-13,7.226850037242545E-14,5.045416579552097E-16,1.46785142864149E-17,2.5589252517208934E-13
110.99999999999999,1.9020653470910965E-13,8.431952322492933E-14,5.801807504280747E-16,1.6534575577036622E-17,2.751227732600441E-13
112,1.9550336452966285E-13,9.8171103277483E-14,6.632522333203007E-16,1.8492541820307184E-17,2.943562125822864E-13
112.99999999999999,1.9858998311439341E-13,1.141290638210082E-13,7.525527647330861E-16,2.055686235240018E-17,3.134921565624871E-13
113.99999999999999,1.9915310859283443E-13,1.326950683783196E-13,8.461392426468511E-16,2.276598593602547E-17,3.327170821997369E-13
115,1.970326529124718E-13,1.5478078738124611E-13,9.413440182709134E-16,2.5224083877876418E-17,3.527800083958667E-13
115.99999999999999,1.922876199158229E-13,1.8215265899093443E-13,1.0348473122791234E-15,2.815288147894499E-17,3.755032791005154E-13
116.99999999999999,1.852370126807677E-13,2.183560003560511E-13,1.1228707254247242E-15,3.1979567047815686E-17,4.0474786332929137E-13
118,1.764758686507577E-13,2.7067705281387783E-13,1.20150289551039E-15,3.7484703896938555E-17,4.4839190906404286E-13
118.99999999999999,1.6686685511623518E-13,3.537294353003809E-13,1.2669474950315884E-15,4.599700109017652E-17,5.219092349127379E-13
120,1.5749947855523097E-13,4.905370859555316E-13,1.3158328041525518E-15,5.910048634876408E-17,6.494114978012639E-13
121,1.496458251149643E-13,6.739042179832324E-13,1.345391533436834E-15,7.487632401266232E-17,8.249703109556462E-13
121.99999999999999,1.4470347343399434E-13,7.585358858624073E-13,1.3536089287297079E-15,8.166229823263728E-17,9.046746305233641E-13
122.99999999999999,1.4418787254991508E-13,6.600757110463292E-13,1.3391441929368948E-15,7.84530706213562E-17,8.056811808598025E-13
123.99999999999999,1.4972363408862915E-13,5.331760657591962E-13,1.3013459033245978E-15,8.062127008608256E-17,6.842816670212361E-13
125,1.6307714724400302E-13,4.4983030382073214E-13,1.2402778246337444E-15,9.353717955744706E-17,6.142412660689263E-13
126,1.8622073493029833E-13,4.024273665571222E-13,1.156696414305443E-15,1.1746357746809705E-16,5.899222614791941E-13
127,2.2139200627993605E-13,3.765362671545525E-13,1.0524079627307736E-15,1.5346930133360063E-16,5.991341506985529E-13
127.99999999999999,2.7118704141851464E-13,3.632319572824117E-13,9.305979688542519E-16,2.0403355489916433E-16,6.355536302246798E-13
129,3.3859929940234024E-13,3.576126084829892E-13,7.966858024154555E-16,2.729024114096357E-16,6.972814960991545E-13
129.99999999999997,4.270268893606542E-13,3.568834086309892E-13,6.594120867051687E-16,3.650235230132487E-16,7.849347336013618E-13
130.99999999999997,5.401213314965379E-13,3.5928292446587506E-13,5.324332132559472E-16,4.864871107083185E-16,9.004231762863773E-13
132,6.814462583640885E-13,3.6347952686332557E-13,4.363007027676777E-16,6.443184443963538E-16,1.046006404374578E-12
133,8.537297612344333E-13,3.682387905021841E-13,4.004614085558979E-16,8.458381121268348E-16,1.2232148512573E-12
134,1.0576551505512987E-12,3.721914034974633E-13,4.645728466430405E-16,1.0973361207410093E-15,1.4314084630161461E-12
135,1.290141497687658E-12,3.7378781913260397E-13,6.774063800698325E-16,1.4018616489664833E-15,1.6660085848492982E-12
135.99999999999997,1.5424461350825412E-12,3.7131011133311707E-13,1.0914973142339458E-15,1.7561233069365407E-15,1.9166038670368287E-12
136.99999999999997,1.7989337052645848E-12,3.6313798086436253E-13,1.7517011907792968E-15,2.147390800199627E-15,2.165970778119926E-12
138,2.037992418745927E-12,3.482028883916827E-13,2.6789838026466493E-15,2.552330179245499E-15,2.391426621119502E-12
139,2.2358329874046467E-12,3.2641672750557634E-13,3.855843383647345E-15,2.9395154522295403E-15,2.5690450737461E-12
140,2.3726898288055878E-12,2.9891458699461613E-13,5.222501090315909E-15,3.276407799169708E-15,2.6801033246896895E-12
141,2.4384750709114933E-12,2.6782440318615374E-13,6.689611375098366E-15,3.537973482563936E-15,2.716527058955309E-12
141.99999999999997,2.434927777298292E-12,2.356873772782284E-13,8.162606338802174E-15,3.712738516930687E-15,2.6824904994322537E-12
142.99999999999997,2.37322959046624E-12,2.0476370936710293E-13,9.564574989950413E-15,3.8031055584098146E-15,2.591360980381703E-12
144,2.269307271679364E-12,1.7663777289341382E-13,1.0848456625592125E-14,3.82140026487608E-15,2.4606149014632465E-12
145,2.1392373915775737E-12,1.5211776528069345E-13,1.1996335117495773E-14,3.7842182402767846E-15,2.3071357102160398E-12
146,1.996457689299509E-12,1.3139180157939517E-13,1.3011863314249176E-14,3.707965754836408E-15,2.1445693199479896E-12
147,1.850786647975416E-12,1.1424256992415861E-13,1.3910702453217207E-14,3.606350898529587E-15,1.9825462712513214E-12
147.99999999999997,1.708695166562524E-12,1.0025427362275011E-13,1.4713654401559808E-14,3.48972554273854E-15,1.8271528201295722E-12
148.99999999999997,1.5739642482883342E-12,8.894467854420848E-14,1.5441750287345275E-14,3.3652112113117135E-15,1.6817158883311997E-12
150,1.448454943061783E-12,7.984197925858788E-14,1.6113406349932067E-14,3.2372893220356882E-15,1.5476476179923387E-12
151,1.332852032578145E-12,7.253229525991787E-14,1.6744541008952993E-14,3.108649000412448E-15,1.4252375178474283E-12
152,1.2270698259834705E-12,6.666147630759281E-14,1.7347686967960755E-14,2.980723183028199E-15,1.3140597124420523E-12
153,1.1306180552799584E-12,6.194002322057325E-14,1.793253835346493E-14,2.8541748895101342E-15,1.2133447917435067E-12
153.99999999999997,1.0427979648722597E-12,5.813283804247206E-14,1.850632156668956E-14,2.7293611099642737E-15,1.1221664855913856E-12
154.99999999999997,9.628366387633252E-13,5.505113709529252E-14,1.9074061524352327E-14,2.6066927036687377E-15,1.0395685300866387E-12
156,8.899699776044877E-13,5.254593228006019E-14,1.963913197299468E-14,2.4870616323234525E-15,9.646421034898661E-13
157,8.234736696520135E-13,5.0496337462707364E-14,2.0203270110613782E-14,2.37229741301597E-15,8.965455746383506E-13
158,7.62689255417969E-13,4.8806532522957706E-14,2.0766796805501152E-14,2.2658928630593088E-15,8.345284776094873E-13
159,7.070324926020472E-13,4.73993346496536E-14,2.1328692993904264E-14,2.1740528214840487E-15,7.779345730670892E-13
159.99999999999997,6.559969749260721E-13,4.621199793919158E-14,2.1886429074966235E-14,2.107334090180655E-15,7.262027360304106E-13
160.99999999999997,6.091547038761548E-13,4.519259756225465E-14,2.2436013283951848E-14,2.083469044702163E-15,6.788667837670634E-13
162,5.661446775735919E-13,4.429785728329967E-14,2.2971356021011642E-14,2.132037694126951E-15,6.355459285720301E-13
163,5.266913811524919E-13,4.349039263632646E-14,2.348396871205275E-14,2.302724688641283E-15,5.959684671895124E-13
164,4.905916871885687E-13,4.2736517166336376E-14,2.3962453773982026E-14,2.680417748709786E-15,5.599710758775968E-13
165,4.5773776414653E-13,4.200621482189399E-14,2.4389987583633828E-14,3.4134392823923815E-15,5.275474058344503E-13
165.99999999999997,4.2813077641338556E-13,4.126684255710679E-14,2.474537344502131E-14,4.770511096836957E-15,4.989135035123506E-13
166.99999999999997,4.0192311025590024E-13,4.0485248497728914E-14,2.499889704611359E-14,7.259592090279708E-15,4.746668478900225E-13
168,3.794904756698496E-13,3.962351597396039E-14,2.5112809330661804E-14,1.1897422293989533E-14,4.561242232684614E-13
169,3.615575410434901E-13,3.8641065215739874E-14,2.504992991953669E-14,2.0870171558745864E-14,4.461187077375125E-13
170,3.49380260068262E-13,3.7511570255517074E-14,2.4822583878413696E-14,3.931882423876497E-14,4.510332384409578E-13
171,3.447158803559203E-13,3.632874016989067E-14,2.4741007414305726E-14,8.064679070676277E-14,4.864324186468795E-13
171.99999999999997,3.4698010393471254E-13,3.588195603428459E-14,2.6641975372282427E-14,1.825236639196823E-13,5.920276992609619E-13
172.99999999999997,3.303942273811581E-13,4.0205824181182266E-14,3.883712473712993E-14,4.268364703141166E-13,8.362736466135869E-13
174,2.1002152486774508E-13,5.5004971969178315E-14,7.047137338332532E-14,6.823095387110142E-13,1.017807408931263E-12
175,9.012910416059473E-14,6.292153494390828E-14,8.445279184476108E-14,5.352435988444679E-13,7.72747029793732E-13
176,5.854695176042647E-14,6.257789298570485E-14,8.162504024387418E-14,3.470130886935713E-13,5.497629736835768E-13
177,5.1402470470266237E-14,5.862770238925104E-14,7.955941123241765E-14,2.5816815967144055E-13,4.4775774376337546E-13
177.99999999999997,4.675149105323771E-14,4.2599583718439875E-14,8.069557160367756E-14,1.9864612790650853E-13,3.6869277428186365E-13
178.99999999999997,4.120511209383601E-14,3.7321734978443166E-14,8.48168757106007E-14,1.467944156865537E-13,3.101381384694336E-13
180,3.469914975196314E-14,3.669171168010301E-14,9.173832075225422E-14,1.184521133206205E-13,2.8158129550494085E-13
181,2.7621978256472177E-14,3.623580341197919E-14,1.0131619784418751E-13,1.0146059353168054E-13,2.666345730443194E-13
182,2.0392979013191126E-14,3.559803457786278E-14,1.1309313262473513E-13,9.023381198728742E-14,2.5931795820307645E-13
183,1.3488438326243741E-14,3.4812920451596385E-14,1.2593741354159504E-13,8.237103616235908E-14,2.566098084817942E-13
183.99999999999997,7.488587701431915E-15,3.3926373903078924E-14,1.379474032642674E-13,7.66604229081697E-14,2.5602278777694793E-13
184.99999999999997,3.0064274106881895E-15,3.2967653210367024E-14,1.469911131241593E-13,7.241443226224467E-14,2.553796260074592E-13
