% Model:              3D-Au-Plate.mph
% Version:            COMSOL 6.2.0.339
% Date:               Nov 28 2025, 15:10
% Dimension:          1
% Nodes:              171
% Expressions:        3
% Description:        Table graph
% R (nm),F_x (N),F_y (N),F_z (N)
100,1.4145881691072778E-25,7.058163782617322E-26,-1.5212799657177378E-24
100.5,1.5117271733972033E-25,7.288285874166841E-26,-1.5864448138507255E-24
100.99999999999999,1.609318336350213E-25,7.502000710058068E-26,-1.6562600274680177E-24
101.49999999999999,1.716464978851815E-25,7.698487861164462E-26,-1.7245692109096564E-24
101.99999999999999,1.8270265162937795E-25,7.92788151723692E-26,-1.7981532538833253E-24
102.5,1.9464018626138665E-25,8.064085794690756E-26,-1.8747710376150523E-24
103,2.0757725585490594E-25,8.258882314228414E-26,-1.9542570336156367E-24
103.5,2.208885562037643E-25,8.397794366556054E-26,-2.037996859104812E-24
103.99999999999999,2.3478632876263347E-25,8.508451214347081E-26,-2.1250199927596244E-24
104.49999999999999,2.498087676123619E-25,8.615432116720957E-26,-2.2144637442853358E-24
104.99999999999999,2.6494190158594073E-25,8.648089344232379E-26,-2.308438239046234E-24
105.5,2.809334615001373E-25,8.672105353972999E-26,-2.402348624516373E-24
106,2.9847428178927638E-25,8.68094506093613E-26,-2.503947249349335E-24
106.5,3.1574079085175827E-25,8.555001852480565E-26,-2.6017995410123896E-24
106.99999999999999,3.3396555354038583E-25,8.404214462124942E-26,-2.702534350475814E-24
107.49999999999999,3.527302474799807E-25,8.260228588563147E-26,-2.8093342517262088E-24
107.99999999999999,3.7217684527571672E-25,8.025750528946115E-26,-2.911643397734275E-24
108.5,3.9214511408702315E-25,7.622132861925071E-26,-3.0173284421125897E-24
109,4.124349175539301E-25,7.209459682384119E-26,-3.119082792217859E-24
109.5,4.327055164457171E-25,6.667004241935442E-26,-3.219890158900299E-24
109.99999999999999,4.538163837183167E-25,6.071358907685141E-26,-3.3133078401464495E-24
110.49999999999999,4.74851960742484E-25,5.391621814796603E-26,-3.410643365830637E-24
110.99999999999999,4.949876184410725E-25,4.463788981564817E-26,-3.494194236330181E-24
111.5,5.151043849998497E-25,3.5228522121212726E-26,-3.568151643716133E-24
112,5.34670638433627E-25,2.361539499326741E-26,-3.637150050090273E-24
112.5,5.531018278734421E-25,1.1070121703222969E-26,-3.6902310921655745E-24
112.99999999999999,5.71018129329802E-25,-3.0254540705531277E-27,-3.735724107088232E-24
113.49999999999999,5.872256859211573E-25,-1.8838000503852734E-26,-3.759396417460703E-24
113.99999999999999,6.016896749602796E-25,-3.5549268482050503E-26,-3.763480404136817E-24
114.5,6.147022608507838E-25,-5.521362849384084E-26,-3.748294826938947E-24
115,6.259360293663113E-25,-7.548960403403398E-26,-3.717468210463216E-24
115.5,6.343782936725293E-25,-9.837597943579082E-26,-3.650272746181148E-24
115.99999999999999,6.401743583095655E-25,-1.2230496116288732E-25,-3.556068502256669E-24
116.49999999999999,6.434147629698183E-25,-1.4835825048360437E-25,-3.437749088253788E-24
116.99999999999999,6.435427292450495E-25,-1.7626243969639134E-25,-3.2798478810639457E-24
117.5,6.406468934177288E-25,-2.0452576485577191E-25,-3.0816130973652837E-24
118,6.343589561920552E-25,-2.3493838453276147E-25,-2.832214056578606E-24
118.5,6.237153743372896E-25,-2.6554680660870817E-25,-2.5370035170454675E-24
118.99999999999999,6.117143171429555E-25,-2.9332345159611585E-25,-2.1765311215133214E-24
119.49999999999999,5.9553675280211915E-25,-3.1710920262007485E-25,-1.741060369076518E-24
120,5.789277541347004E-25,-3.273264054562721E-25,-1.2320254886945215E-24
120.49999999999999,5.635250289741584E-25,-3.1539014198009334E-25,-6.73741391739269E-25
121,5.556785395555649E-25,-2.6902320617910605E-25,-1.278925338447473E-25
121.49999999999999,5.587942751101129E-25,-1.8725830150285736E-25,2.9366656000996844E-25
121.99999999999999,5.722665490471905E-25,-8.960601796346945E-26,4.8148888182386795E-25
122.5,5.895081183966846E-25,-6.905210830270484E-27,4.771396258656348E-25
122.99999999999999,6.00232323256235E-25,4.010591999642078E-26,3.9012654422665573E-25
123.5,6.035078650677417E-25,5.44585360441832E-26,3.325674995132535E-25
123.99999999999999,6.003028987571978E-25,4.7820541176738605E-26,3.5771163024618306E-25
124.5,5.92836974068111E-25,3.0279134644192194E-26,4.472160100758906E-25
125,5.827843660105302E-25,8.513458208505839E-27,6.147718582105189E-25
125.49999999999999,5.725344655775005E-25,-1.3115131498265633E-26,8.241689112509778E-25
126,5.6257050052772405E-25,-3.399389553618261E-26,1.0693393788967237E-24
126.49999999999999,5.546328737600845E-25,-5.269152804165997E-26,1.3382098931123485E-24
127,5.475966233223472E-25,-7.02695165823642E-26,1.624007344557115E-24
127.49999999999999,5.449558232183476E-25,-8.441891886749889E-26,1.92628947724612E-24
127.99999999999999,5.43839993245791E-25,-9.539026396400719E-26,2.2260699816312074E-24
128.5,5.480933864232207E-25,-1.0544924299291186E-25,2.5250158232690316E-24
129,5.556834487262947E-25,-1.121811855716905E-25,2.832644432715275E-24
129.5,5.690057232727685E-25,-1.1766413214332995E-25,3.1223607620570702E-24
129.99999999999997,5.873022754686454E-25,-1.204693099283018E-25,3.4096090429678676E-24
130.5,6.1123096657111795E-25,-1.1985514357060029E-25,3.682706572168311E-24
130.99999999999997,6.425009561972509E-25,-1.168968170802555E-25,3.941920200205665E-24
131.5,6.81211590610431E-25,-1.1183269176710465E-25,4.1628888396848885E-24
132,7.279200859163345E-25,-1.0492612493494818E-25,4.368021931972502E-24
132.5,7.828067013620214E-25,-9.40131287406402E-26,4.5313994162181665E-24
133,8.474768304325684E-25,-8.137524354271078E-26,4.649618498422119E-24
133.49999999999997,9.213121865160649E-25,-6.464745520673495E-26,4.721927304787949E-24
134,1.0041440402934283E-24,-4.644076139295679E-26,4.720175525091766E-24
134.5,1.0972681007047258E-24,-2.4879111289752543E-26,4.663627744528859E-24
135,1.1982407282545256E-24,-2.227268627294068E-28,4.5352043095200095E-24
135.5,1.3084499743140808E-24,2.750316418658095E-26,4.3219105440287614E-24
135.99999999999997,1.4243076982715085E-24,5.662458718558691E-26,4.017212451835074E-24
136.5,1.5459903992347275E-24,8.831825659887837E-26,3.6287558696779674E-24
136.99999999999997,1.6683808814899245E-24,1.193292816702721E-25,3.1526148717001837E-24
137.5,1.7921585516928087E-24,1.5270307269644753E-25,2.5968675509349904E-24
138,1.91247914086694E-24,1.8513097246854824E-25,1.963590712292008E-24
138.5,2.0259393557274476E-24,2.173177062585954E-25,1.2602519465037822E-24
139,2.1312096161156892E-24,2.4742820578044805E-25,5.137982135449737E-25
139.49999999999997,2.2246317100624694E-24,2.7498645391629814E-25,-2.610654723263862E-25
140,2.304268419186844E-24,2.9980036954429403E-25,-1.0507009585545566E-24
140.5,2.36739658905569E-24,3.201698759163295E-25,-1.8365860633479205E-24
141,2.4160472619964632E-24,3.376810840995552E-25,-2.5982353630106867E-24
141.5,2.448325288252342E-24,3.519412470545374E-25,-3.323810720685536E-24
141.99999999999997,2.464898997303094E-24,3.624074082586408E-25,-4.002720794066666E-24
142.5,2.468063590140409E-24,3.694812466824023E-25,-4.6228555413206646E-24
142.99999999999997,2.4585375398580685E-24,3.7240451542729475E-25,-5.1815534085274916E-24
143.5,2.438513418828312E-24,3.7445448136254243E-25,-5.6812250251008374E-24
144,2.4076264375163955E-24,3.714633381001504E-25,-6.106731509239092E-24
144.5,2.369436479850794E-24,3.693107626928228E-25,-6.4813004884561564E-24
145,2.3244264064717126E-24,3.6314967680515385E-25,-6.795236820934944E-24
145.49999999999997,2.276454005547053E-24,3.571200260891867E-25,-7.054587671054744E-24
146,2.223165258418565E-24,3.490109307534048E-25,-7.26361869881621E-24
146.5,2.168715078817025E-24,3.4010736732350625E-25,-7.427619300341166E-24
147,2.1118367598512284E-24,3.3063687675928907E-25,-7.556866252763009E-24
147.5,2.0546205194528217E-24,3.2182972485031483E-25,-7.647335220879922E-24
147.99999999999997,1.9966193070923167E-24,3.127172405646968E-25,-7.711162380882332E-24
148.5,1.9383423829579218E-24,3.0151838328185427E-25,-7.745451343694424E-24
148.99999999999997,1.88276014986202E-24,2.925171385144714E-25,-7.761344358869598E-24
149.5,1.826128881871265E-24,2.8384302587422374E-25,-7.75399204071403E-24
150,1.7716915394203416E-24,2.7523742464983323E-25,-7.730022124136785E-24
150.5,1.718734623867383E-24,2.6568453570824367E-25,-7.697304958106652E-24
151,1.666702547496635E-24,2.578535887300231E-25,-7.648529904677616E-24
151.49999999999997,1.616036686580925E-24,2.4961234803070966E-25,-7.587053317512131E-24
152,1.5681683878948923E-24,2.4150501481525436E-25,-7.521545749694522E-24
152.5,1.5208334778731987E-24,2.337545662098249E-25,-7.443692123168468E-24
153,1.4751438531362997E-24,2.2610249118540783E-25,-7.364324790257476E-24
153.5,1.4311244156438587E-24,2.195378541108975E-25,-7.278923555802289E-24
153.99999999999997,1.3881257841263157E-24,2.138269350778876E-25,-7.192088959321165E-24
154.5,1.3472262456412167E-24,2.0674124778013168E-25,-7.098730217622365E-24
154.99999999999997,1.3069086882006542E-24,2.020043606420359E-25,-7.001989297885444E-24
155.5,1.2689300553933101E-24,1.9670857708875835E-25,-6.899914240840057E-24
156,1.2317962730147046E-24,1.9181410929883173E-25,-6.801839679673131E-24
156.5,1.1957718760422506E-24,1.8696234232559306E-25,-6.700971960063257E-24
157,1.161432653133498E-24,1.8245248720367555E-25,-6.6025198715029836E-24
157.49999999999997,1.1277830262982204E-24,1.782624653301224E-25,-6.493144148327244E-24
158,1.0954072673292676E-24,1.7538793729966542E-25,-6.389617022233024E-24
158.5,1.0632509850418605E-24,1.715177501775324E-25,-6.286363322862537E-24
159,1.0339435106216873E-24,1.6872684388144678E-25,-6.181158379128882E-24
159.5,1.0036319448442468E-24,1.6593181056823436E-25,-6.075214992805774E-24
159.99999999999997,9.753247561861817E-25,1.6388797493741254E-25,-5.96668461508832E-24
160.5,9.478373056355912E-25,1.6199845091735765E-25,-5.858708332131891E-24
160.99999999999997,9.213772013874601E-25,1.601522816538199E-25,-5.7474652384951596E-24
161.5,8.953531336140121E-25,1.5895997637056304E-25,-5.637520988838687E-24
162,8.698885980284079E-25,1.5839757967495065E-25,-5.524797712386423E-24
162.5,8.451403162006956E-25,1.5833281204466403E-25,-5.4132814391769736E-24
163,8.212611574033095E-25,1.5828030127367592E-25,-5.300532955119311E-24
163.49999999999997,7.985837421177952E-25,1.587380253660625E-25,-5.180779039837941E-24
164,7.760615485764736E-25,1.595647861607695E-25,-5.063808537335037E-24
164.49999999999997,7.540146117163285E-25,1.6126707796936186E-25,-4.944124843541368E-24
165,7.324822804067498E-25,1.628661821540815E-25,-4.8172809793825524E-24
165.5,7.116531972463018E-25,1.6533571079641763E-25,-4.691910252387095E-24
165.99999999999997,6.904652651521208E-25,1.6872698690489E-25,-4.5583834611285906E-24
166.5,6.701809669252788E-25,1.719674503356384E-25,-4.416363987773318E-24
166.99999999999997,6.50158666633407E-25,1.7658492501472832E-25,-4.270567452648427E-24
167.5,6.296921490017137E-25,1.8160155869638268E-25,-4.1157244257545396E-24
168,6.093207268309773E-25,1.8762005589479735E-25,-3.94520386739966E-24
168.5,5.88669809808956E-25,1.9348358471333017E-25,-3.770151289351343E-24
169,5.67065824895808E-25,2.0027112622017058E-25,-3.571190142850163E-24
169.49999999999997,5.448208489705408E-25,2.0691734752901767E-25,-3.3499045209338135E-24
170,5.205010753085194E-25,2.1270694765718055E-25,-3.103272217345754E-24
170.49999999999997,4.948446421663421E-25,2.1568212216285114E-25,-2.81844349530932E-24
171,4.687473154906722E-25,2.1431846306523407E-25,-2.4901074989594487E-24
171.5,4.429528486827542E-25,2.0381623602393361E-25,-2.1233735898611676E-24
171.99999999999997,4.257625221845118E-25,1.7927244703498608E-25,-1.744009960915076E-24
172.5,4.278561324709599E-25,1.3583838620569096E-25,-1.4619074260660747E-24
172.99999999999997,4.688888586561766E-25,7.305940241292067E-26,-1.5310818215189675E-24
173.5,5.511272672445057E-25,6.473054452925316E-27,-2.350665045326669E-24
174,6.346291643153939E-25,-3.858637465926901E-26,-3.91353334784627E-24
174.5,6.617781075795019E-25,-5.107372468081635E-26,-5.4365880742654284E-24
175,6.424285148620254E-25,-5.007074537782084E-26,-6.298432517788338E-24
175.49999999999997,6.125072974215029E-25,-4.788887188592292E-26,-6.6044692507939384E-24
176,5.877811557806426E-25,-4.7498763593835844E-26,-6.6306334172489E-24
176.49999999999997,5.735425087221076E-25,-4.503285519758424E-26,-6.539778950516823E-24
177,5.702401194415749E-25,-4.016178224705537E-26,-6.383494743504324E-24
177.5,5.744036639171456E-25,-3.431992268388538E-26,-6.235936818018387E-24
177.99999999999997,5.793286716560902E-25,-3.4518345099560484E-26,-6.274389971670316E-24
178.5,5.860290800902778E-25,-4.433644586686806E-26,-6.479982759887081E-24
178.99999999999997,5.956264291040357E-25,-5.869521618102183E-26,-6.766660128232362E-24
179.5,6.106985394533094E-25,-7.365491773988541E-26,-7.12069037532674E-24
180,6.282012785081224E-25,-9.079467393101731E-26,-7.54311510615986E-24
180.5,6.489592205664607E-25,-1.1057503740153922E-25,-8.046196524798926E-24
181,6.7139239224057175E-25,-1.33659410829198E-25,-8.637119162354943E-24
181.49999999999997,6.938946076512504E-25,-1.603034332251154E-25,-9.316073003721435E-24
182,7.1705450071906365E-25,-1.8897025213544436E-25,-1.0071534975016657E-23
182.49999999999997,7.369387545264998E-25,-2.1957859360466285E-25,-1.0884330458294517E-23
183,7.5311316318425055E-25,-2.5194677736556777E-25,-1.1726893244552546E-23
183.5,7.661881751419564E-25,-2.856653492225568E-25,-1.2587195560078783E-23
183.99999999999997,7.700980405164806E-25,-3.1597454203508943E-25,-1.3377548808427007E-23
184.5,7.692129510106575E-25,-3.4451779361854893E-25,-1.4093680285363208E-23
184.99999999999997,7.609543573551001E-25,-3.6822788796365615E-25,-1.471477828600052E-23
