% Model:              2D-Au-Plate-from-wl.mph
% Version:            COMSOL 6.1.0.282
% Date:               Apr 15 2025, 16:49
% Dimension:          1
% Nodes:              71
% Expressions:        3
% Description:        Table graph
% lambda0 (nm),F_x (N),F_y (N),F_z (N)
400,1.5234912173424243E-25,-2.668104013053729E-26,-4.067800906044745E-25
410,1.323477887410296E-25,-3.9990442203081927E-26,-4.447897781644733E-25
419.99999999999994,9.253466349067375E-26,-7.097317530258973E-26,-5.3356917641977405E-25
429.99999999999994,1.3272711944623662E-25,-5.505987465928473E-26,-5.111384046346089E-25
439.99999999999994,2.1282786440162533E-25,-5.067976532399875E-26,-6.121018389821182E-25
450,2.41731536068167E-25,-2.7693118047489984E-26,-5.046875753962317E-25
460,2.843608003204637E-25,-2.0220624145076388E-27,-4.198879045203956E-25
470,2.5080654873977286E-25,-2.0400908366113825E-26,-6.040343992914604E-25
480,2.505355267125547E-25,7.035800905288448E-27,-4.140456368548744E-25
490,2.017893990487498E-25,4.9071209989029404E-26,-1.8758293500978141E-25
500,2.2932713970318914E-25,1.0735415634776231E-26,-2.4656046016777864E-25
509.99999999999994,2.7655019296551323E-25,-1.8834010552638078E-28,-3.197757454569172E-25
519.9999999999999,2.228773300849476E-25,-8.751453313757554E-26,-9.136397523997049E-25
530,9.885831094444656E-26,-1.4092342159014966E-25,-1.5116213517984897E-24
540,9.074662288624019E-26,-1.5710141585548635E-25,-1.689110806479587E-24
550,7.802336960639477E-26,-1.477187571125177E-25,-1.7112702861615627E-24
560,8.526467830346663E-26,-1.0078898703650292E-25,-1.3811646130539828E-24
570,9.813761552094361E-26,-5.93621905905847E-26,-1.4555631557895437E-24
580,1.0978637551177556E-25,-5.713914263470187E-26,-2.4866254718164207E-24
590,1.8792833980635043E-25,-2.857296362149434E-26,-4.412428003367938E-24
600,3.045101473349713E-25,6.126392578054406E-26,-4.24688363761538E-24
610,2.670558459950255E-25,-1.1564397415301342E-26,-3.244727657532587E-24
619.9999999999999,2.0336658058540607E-25,-1.1658203798418953E-26,-1.6452271411304286E-24
629.9999999999999,2.7157111378396064E-25,-3.543314255576457E-26,-2.334626446498463E-24
639.9999999999999,3.4417512856583906E-25,-5.615308505661994E-26,-2.9575563484426904E-24
650,4.305817741797671E-25,-7.001138343907563E-26,-3.5097241396426234E-24
660,5.334580413341525E-25,-8.123287875194784E-26,-4.054266533133018E-24
670,6.535917923644873E-25,-9.186516277614934E-26,-4.604244245799068E-24
680,7.946861003098172E-25,-1.015080253472382E-25,-5.154817630443081E-24
690,9.57730801272013E-25,-1.0831261689439772E-25,-5.6392501489747E-24
700,1.1373585117671376E-24,-1.098635327268411E-25,-5.9225299271884614E-24
710,1.3140242197511246E-24,-1.0363152665944601E-25,-5.73590259614699E-24
720,1.4283849714876052E-24,-9.027559095809075E-26,-4.769650521177127E-24
729.9999999999999,1.4082533093946181E-24,-7.467763102348077E-26,-2.8738443674861793E-24
739.9999999999999,1.2219191573424992E-24,-6.701226450413849E-26,-4.983005557075789E-25
749.9999999999999,9.39414297527277E-25,-7.374330101741183E-26,1.5198360767182676E-24
759.9999999999999,6.777660135834604E-25,-9.260926646923958E-26,2.6070422079542962E-24
770,4.999502986511389E-25,-1.1720814151686986E-25,2.7974786048802448E-24
780,4.139003642615251E-25,-1.4103792629955962E-25,2.385622752202249E-24
790,3.9835678560224404E-25,-1.582064389027056E-25,1.6565514712452416E-24
800,4.2982590032989695E-25,-1.5519806406587243E-25,8.37148928972674E-25
810,4.776469696379302E-25,-9.516698475129233E-26,2.33136175889861E-25
820,4.850916419928086E-25,6.267287939558489E-26,1.5736225997544286E-25
830,4.682871702640026E-25,1.9016996620166226E-26,-6.578142991320948E-25
839.9999999999999,5.148010007964846E-25,-1.4978977402171254E-25,-2.0117710561259352E-24
849.9999999999999,5.490472715303762E-25,-2.3122696309713235E-25,-2.8390199596436995E-24
859.9999999999999,5.56407251859346E-25,-2.646364913910444E-25,-3.2915641337684836E-24
869.9999999999999,5.423697219827558E-25,-2.7485973811815335E-25,-3.4944444862404864E-24
879.9999999999999,5.131382065725184E-25,-2.723219720387053E-25,-3.528069158219048E-24
890,4.757207096147371E-25,-2.6278440615410243E-25,-3.44930951363935E-24
900,4.341289698633816E-25,-2.492072764663965E-25,-3.2998703346026113E-24
910,3.9194571948713543E-25,-2.3365644470837946E-25,-3.110422484203819E-24
920,3.5133290235472878E-25,-2.1747652954162926E-25,-2.9032621013005975E-24
930,3.1402611522138694E-25,-2.0183856092152248E-25,-2.698075470035669E-24
940,2.793716481412489E-25,-1.8653716377185381E-25,-2.4931655432423126E-24
949.9999999999999,2.485670493071037E-25,-1.7250677632771632E-25,-2.304128337172584E-24
960,2.209793119093691E-25,-1.595434869250384E-25,-2.128473927315332E-24
969.9999999999999,1.963954864108934E-25,-1.4769194581630306E-25,-1.967597468113296E-24
980,1.745749525060369E-25,-1.3692945178557107E-25,-1.8217102081039346E-24
989.9999999999999,1.5523910613760445E-25,-1.2718697581940586E-25,-1.6903364039530227E-24
1000,1.3834604689923304E-25,-1.185451075271744E-25,-1.5756475207842365E-24
1010,1.2320983531237487E-25,-1.105857979507841E-25,-1.4706798979104204E-24
1019.9999999999999,1.100061688030714E-25,-1.0352139560806519E-25,-1.37992970653448E-24
1030,9.833997273237187E-26,-9.710654735513947E-26,-1.2993751734225845E-24
1039.9999999999998,8.804470407535354E-26,-9.125969369369059E-26,-1.2278859869146489E-24
1050,7.896578173824678E-26,-8.590639871086468E-26,-1.1643665546876366E-24
1060,7.096529306508905E-26,-8.098026695927167E-26,-1.107766405475686E-24
1070,6.392189180479406E-26,-7.642337286451847E-26,-1.0570983388757055E-24
1080,5.772151633556742E-26,-7.218638937017992E-26,-1.0114696019111199E-24
1090,5.230903647703127E-26,-6.830312116521993E-26,-9.715788756580534E-25
1100,4.7474461198956374E-26,-6.459150234696919E-26,-9.334389197759786E-25
