% Model:              2D-Au-Plate_tm.mph
% Version:            COMSOL 6.2.0.339
% Date:               Jul 22 2025, 13:59
% Dimension:          1
% Nodes:              101
% Expressions:        6
% Description:        Table graph
% lambda0 (nm),real(mx) (m^2*A),imag(mx) (m^2*A),real(my) (m^2*A),imag(my) (m^2*A),real(mz) (m^2*A),imag(mz) (m^2*A)
600,1.8740484884645214E-37,2.551589095832464E-37,8.567517521905924E-24,-1.7580696694571006E-23,0,0
605.9999999999999,-1.0242900328854914E-36,3.086702018077103E-37,5.9056415565950655E-24,-8.524147307374677E-24,0,0
612,3.363556642853727E-37,5.5563014925392436E-37,2.472690775193535E-24,-3.545957073782673E-24,0,0
618,1.2648836213800275E-37,-5.24560137186398E-37,-3.956633522179138E-25,-1.037279161307854E-24,0,0
624,6.0329134684588814E-37,3.7480969769290424E-37,-2.3026192263442393E-24,1.2483766485004151E-25,0,0
629.9999999999999,7.257973559459038E-37,1.25254913878047E-36,-3.1731201694822627E-24,1.664097617719199E-24,0,0
636,1.8967172672961404E-37,-9.309768339175619E-37,-4.9556781882759966E-24,1.9851422034023343E-24,0,0
642,-7.521547667543372E-37,-8.769033271465586E-37,-5.529516593489367E-24,2.1535937627497877E-24,0,0
648,2.084302313112637E-37,2.1251709859187673E-37,-5.9211862233662105E-24,2.5018150193388234E-24,0,0
653.9999999999999,-6.943259551276029E-37,2.4276856592297516E-37,-6.3964756853488714E-24,2.8989013528470926E-24,0,0
660,-3.5223101734630776E-37,2.0892036706978522E-36,-7.151091180624952E-24,3.144996332400886E-24,0,0
666,-2.8802683691939346E-38,1.0272957183458366E-36,-8.241445494514489E-24,2.834130533250569E-24,0,0
672,2.8486978600421087E-37,1.7913597028504255E-36,-9.277229264899766E-24,1.2692107659587956E-24,0,0
677.9999999999999,-5.046785549889449E-37,2.430439068932034E-36,-8.782484403638095E-24,-1.717876730086559E-24,0,0
684,1.7559690179336534E-36,3.0567172422616708E-37,-5.58326957380977E-24,-4.144815933051745E-24,0,0
690,-7.538900635758672E-37,1.1051390074354317E-36,-1.3719736829798408E-24,-4.064792039099014E-24,0,0
696,-8.3402365615473E-37,-1.3397680762214892E-36,1.867164026496124E-24,-2.2587777206107158E-24,0,0
701.9999999999999,-5.923018093815018E-37,-3.4871357249103586E-37,4.010158994635395E-24,1.350024030573619E-25,0,0
708,-9.270773714857952E-38,-2.0582818706381877E-37,5.36773800907319E-24,2.629186256930185E-24,0,0
714,-1.8951711772931576E-36,1.1193475385234535E-37,6.2063675836795364E-24,5.005032344336709E-24,0,0
720,9.332761472553319E-37,2.0888432767577634E-36,6.700634366804609E-24,7.283472439666611E-24,0,0
725.9999999999999,-1.5280126429483494E-36,5.965528811510679E-37,6.934181190546778E-24,9.51457864339256E-24,0,0
732,-8.591359059001548E-37,1.3436639347138551E-36,6.932113397592042E-24,1.1703618485032985E-23,0,0
738,-1.2544952660569525E-36,-5.9134158477737625E-37,6.716103718067711E-24,1.385735257463759E-23,0,0
744,6.8016427525179285E-37,4.0318279180825723E-36,6.276533848381896E-24,1.6030290541749492E-23,0,0
749.9999999999999,-1.708267276023429E-36,-7.320501908064536E-37,5.591252957718097E-24,1.8266882169176852E-23,0,0
756,-4.758929900091599E-37,-2.819484327258467E-36,4.634672793532113E-24,2.0610119507787477E-23,0,0
762,8.970925956703629E-38,-1.7610019193070006E-36,3.1953494499538893E-24,2.3253647666454436E-23,0,0
768,2.0334291045296275E-36,-2.291528828664003E-37,6.660680261454235E-25,2.6458327106777904E-23,0,0
773.9999999999999,7.60589786922128E-37,-2.056753800332209E-36,-5.195285097101022E-24,2.9753550554709535E-23,0,0
780,-2.9666187572393376E-36,2.465310786575078E-36,-1.5013853455688988E-23,2.400336190190039E-23,0,0
786,-1.9545604946804783E-37,2.4767208587183068E-36,-1.0005325780228198E-23,1.6285919181365553E-23,0,0
791.9999999999999,2.7667875253386054E-36,8.991108017348631E-37,-6.724860711547514E-24,1.8000154870963084E-23,0,0
797.9999999999999,1.917295761275241E-37,-5.416360525602556E-37,-6.768714718198422E-24,2.0088693265444583E-23,0,0
804,-1.8505796350859043E-36,-6.444189626979724E-36,-8.00430104448548E-24,2.156072659946091E-23,0,0
810,-3.931177098494424E-36,-2.55915736857434E-36,-9.79630052105281E-24,2.2525219828892995E-23,0,0
815.9999999999999,-7.489274390208371E-37,-3.424088409031131E-36,-1.1953116064576573E-23,2.306870179774239E-23,0,0
821.9999999999999,-2.413399643444611E-36,-2.962438187534301E-39,-1.4396864532995747E-23,2.3221687928576532E-23,0,0
828,-3.0318068131226964E-36,1.242364406033546E-36,-1.709499479728871E-23,2.2979857930136765E-23,0,0
834,-4.195936902641649E-36,1.7853771634449424E-36,-2.0027555968823948E-23,2.2316930225783256E-23,0,0
839.9999999999999,-7.265541832200914E-37,-1.50759993018169E-36,-2.318138022858548E-23,2.1186832611594337E-23,0,0
845.9999999999999,2.386298019149893E-36,3.420902526600741E-36,-2.647743916316109E-23,1.955541303988656E-23,0,0
852,-6.080725130520834E-36,-3.050085993764027E-37,-2.9953746572435307E-23,1.7331012578184874E-23,0,0
858,-1.1492602355508679E-36,-8.639550936670292E-36,-3.3576667125631205E-23,1.4418163203057948E-23,0,0
863.9999999999999,-1.3119492679859936E-36,8.743560627780071E-36,-3.724693137029373E-23,1.0741614258087086E-23,0,0
869.9999999999999,2.612908322768963E-35,7.554289457000486E-36,-4.09077986512813E-23,6.172011350128953E-24,0,0
876,-1.0252325531373101E-35,-4.8534396069406254E-36,-4.452969679983935E-23,4.580834522826441E-25,0,0
882,-2.9810669502975192E-36,-4.068703426032512E-37,-4.7848875465862413E-23,-6.468082380158068E-24,0,0
887.9999999999999,1.1071964964394013E-35,2.103662675574236E-36,-5.060707705075076E-23,-1.470955948689477E-23,0,0
893.9999999999999,-1.3089594398590127E-35,4.4376603261383665E-36,-5.251441194829522E-23,-2.4448659383430957E-23,0,0
900,1.1499449840370379E-35,2.3353527317788658E-36,-5.31302239251446E-23,-3.574291850868209E-23,0,0
906,-9.290494471259639E-36,3.8050103879479496E-36,-5.189536728227162E-23,-4.8604574699932725E-23,0,0
911.9999999999999,2.2792812010040068E-35,4.505097240207881E-36,-4.8151849861186534E-23,-6.283543491709449E-23,0,0
917.9999999999999,1.5368696844199846E-35,1.797131772194896E-35,-4.117604498439778E-23,-7.797281067956687E-23,0,0
924,-5.32806401028067E-38,-3.1582099420938675E-35,-3.042023287873752E-23,-9.30664720072344E-23,0,0
930,-1.0743199196486926E-35,-4.753217656141184E-35,-1.5502295214024887E-23,-1.0704734509082403E-22,0,0
935.9999999999999,-2.9217165554557275E-35,2.923881081459904E-35,3.900053038084711E-24,-1.1871426149119224E-22,0,0
941.9999999999999,2.6706632536379787E-36,-2.980731783933236E-35,2.682000943340965E-23,-1.263190183504269E-22,0,0
948,-3.626082004572399E-36,2.183848885668352E-35,5.1778413891711624E-23,-1.2873442301545868E-22,0,0
954,2.2462633497887827E-36,1.0070136123430652E-34,7.72703774462825E-23,-1.254880704790332E-22,0,0
960,2.6275889699185023E-35,6.93801581944773E-36,1.0152396601308567E-22,-1.1678612110017152E-22,0,0
966,-1.3925621845051752E-35,1.771339098690583E-35,1.2308814987417892E-22,-1.0349106819301128E-22,0,0
971.9999999999999,-1.532925533139647E-35,-8.650146518508916E-36,1.4105980389043587E-22,-8.683769899058775E-23,0,0
977.9999999999999,4.5251841568527E-35,-2.948489500477084E-35,1.5510940607867255E-22,-6.812048820881917E-23,0,0
983.9999999999999,-2.647413519774936E-35,1.777866553733481E-36,1.653678426003964E-22,-4.846656457768695E-23,0,0
989.9999999999999,-1.3091814425261077E-35,1.0846416020928507E-36,1.7224337054721793E-22,-2.8685203843451437E-23,0,0
996,1.0377312852750631E-35,9.34233353560209E-36,1.7619783024080337E-22,-9.712683237299184E-24,0,0
1002,1.0829830691805597E-35,-1.1555671295024312E-36,1.7783049607172763E-22,8.60789859629236E-24,0,0
1008,-7.362415723296927E-37,-1.937477821920244E-36,1.7750720286050628E-22,2.6232149547378969E-23,0,0
1014,1.3092477550110843E-35,-1.500738029562389E-36,1.7564678189297862E-22,4.2681360146407316E-23,0,0
1019.9999999999999,-1.3772814814453873E-36,2.8231819690837836E-36,1.7254116105535766E-22,5.810745599756379E-23,0,0
1025.9999999999998,-1.528358621130835E-36,2.297468120796675E-36,1.6835505693367394E-22,7.266995438830123E-23,0,0
1032,5.578898192582845E-36,-8.539433500113475E-36,1.6321898932310208E-22,8.642619081737093E-23,0,0
1038,-1.3856253219463356E-35,-2.3742176142780985E-36,1.5721412943149724E-22,9.942242646190675E-23,0,0
1044,-2.2384442428646045E-35,-1.0354435045433761E-35,1.5039072828740967E-22,1.116888566585044E-22,0,0
1050,-1.50860903321394E-35,-1.2977064994736635E-35,1.4277702440492786E-22,1.232336368943078E-22,0,0
1056,7.976872975391632E-36,-5.7644578244560403E-36,1.3438872663478475E-22,1.3403910451886662E-22,0,0
1062,2.3474619681658668E-35,2.959843351165658E-37,1.2524203500643846E-22,1.4406612614234338E-22,0,0
1067.9999999999998,8.211215530995318E-38,-5.234649901009515E-37,1.1535936393238784E-22,1.5325250963336571E-22,0,0
1073.9999999999998,-5.718212074063776E-36,2.859106037031888E-36,1.0477960679732306E-22,1.6152251602968355E-22,0,0
1080,-6.57012568540454E-36,-1.6503159304570646E-36,9.356195225587766E-23,1.6879015138720593E-22,0,0
1086,-1.3077571656748748E-35,-1.7022760871633843E-35,8.211973355242531E-23,1.7493906790591488E-22,0,0
1092,-4.347942417116768E-35,-2.813096705064324E-35,7.011931065211823E-23,1.7997763046551634E-22,0,0
1098,-2.733054652546244E-36,-4.901559405821353E-36,5.757837586666991E-23,1.8378918519937181E-22,0,0
1104,2.015899543283682E-37,-5.795711186940587E-36,4.5090164167831446E-23,1.8635653052082067E-22,0,0
1110,-3.008280296713664E-36,4.339070959887528E-36,3.269866212313909E-23,1.8768998691353707E-22,0,0
1115.9999999999998,-2.239447579593813E-35,-2.2112936049940348E-35,2.016506440828035E-23,1.8764914760277895E-22,0,0
1121.9999999999998,-1.4815823708587606E-35,-3.6190399069830535E-36,8.077496951547842E-24,1.8641112680215284E-22,0,0
1128,-3.761705452106817E-36,-1.3032493582722374E-36,-3.3404122444482794E-24,1.841438825320909E-22,0,0
1134,1.5911536612520004E-36,1.2278311600055033E-35,-1.4300188722610034E-23,1.8072072028671645E-22,0,0
1140,-5.992918750957469E-36,7.65959656629459E-36,-2.457104867477632E-23,1.7630674747014733E-22,0,0
1146,-6.674265118332755E-36,-8.026189282153457E-36,-3.381159729705786E-23,1.713428344190671E-22,0,0
1152,1.0119169881343447E-35,6.75626194758188E-36,-4.21939254969578E-23,1.6576690991969004E-22,0,0
1157.9999999999998,1.17855737972861E-35,-7.829226786015836E-36,-4.9692354732604995E-23,1.59721249164471E-22,0,0
1163.9999999999998,-5.302461624776724E-36,1.8306916558960146E-35,-5.630653157109117E-23,1.5334181808459913E-22,0,0
1169.9999999999998,-1.731620803341218E-35,2.7256161216228003E-35,-6.205764751459716E-23,1.4675368108247813E-22,0,0
1176,-2.9385080299123696E-36,-1.1188934421589407E-36,-6.698390357503247E-23,1.4006787968594547E-22,0,0
1182,8.1675646169717E-36,-2.4820763126680335E-36,-7.113614993414907E-23,1.3337984234078966E-22,0,0
1188,-9.533428818395059E-36,8.328905776070892E-36,-7.457351221460595E-23,1.2676891480972735E-22,0,0
1194,8.675056947647896E-36,-6.942340546728804E-36,-7.735999562473134E-23,1.2029889410451099E-22,0,0
1200,1.4242768512330364E-35,-1.0027600989045547E-35,-7.956102611072308E-23,1.140191321300168E-22,0,0
