% Model:              3D-Au-Plate.mph
% Version:            COMSOL 6.2.0.339
% Date:               Jul 2 2025, 20:31
% Dimension:          1
% Nodes:              61
% Expressions:        6
% Description:        Table graph
% lambda0 (nm),real(px) (C*m),imag(px) (C*m),real(my) (m^2*A),imag(my) (m^2*A),real(pz) (C*m),imag(pz) (C*m)
800,8.042443887338445E-32,-3.144288364199001E-31,-7.307440405646479E-24,2.048614817004331E-23,-8.587472878185482E-32,-2.513195658817458E-32
804.9999999999999,1.0263467127530684E-31,-3.23634460725884E-31,-8.398178185682216E-24,2.1529936270210613E-23,-8.566001725458343E-32,-3.049516155400144E-32
810,1.234876047987841E-31,-3.352008160159638E-31,-9.828242946000167E-24,2.22603898744009E-23,-8.530870322149386E-32,-3.5589527067342265E-32
814.9999999999999,1.4435699201464894E-31,-3.4836964044569467E-31,-1.1498033245596585E-23,2.2720928507277797E-23,-8.485158923424159E-32,-4.046271249310238E-32
820,1.6596067055132978E-31,-3.6266027778162573E-31,-1.3363363825613556E-23,2.293439244797977E-23,-8.431278379555619E-32,-4.515377579132557E-32
825,1.8874462302835663E-31,-3.7773095448092143E-31,-1.5406367819780362E-23,2.2903749507343023E-23,-8.371325135110673E-32,-4.968895116848322E-32
830,2.1305580187989426E-31,-3.933503887409938E-31,-1.761786277891119E-23,2.262288800409353E-23,-8.305911538844369E-32,-5.409705476483715E-32
835,2.3920157976287686E-31,-4.093139004414229E-31,-1.9994741536352673E-23,2.207299244040661E-23,-8.235372809363972E-32,-5.839949013347281E-32
839.9999999999999,2.67473435284533E-31,-4.254393923413075E-31,-2.2536570707074154E-23,2.1226901340680675E-23,-8.160157549384549E-32,-6.26130730921011E-32
845,2.977197743257134E-31,-4.414202181492382E-31,-2.519043549860912E-23,2.0069191201185097E-23,-8.083091028989722E-32,-6.671077537651362E-32
849.9999999999999,3.306607592608915E-31,-4.571713069439673E-31,-2.800244069495642E-23,1.8543421853349467E-23,-8.001928095892039E-32,-7.074843890490015E-32
855,3.66637311415685E-31,-4.724284649612995E-31,-3.09658734543375E-23,1.6594557243411182E-23,-7.916710154284684E-32,-7.473452392266965E-32
859.9999999999999,4.0601914872021345E-31,-4.868559794774402E-31,-3.4067077169107424E-23,1.415600938767277E-23,-7.827426226386077E-32,-7.867580548703815E-32
865,4.4861343455002775E-31,-4.999772985776734E-31,-3.7223188642339615E-23,1.1196388293198831E-23,-7.73685677704494E-32,-8.254385746741912E-32
869.9999999999999,4.953358276938258E-31,-5.113570922848343E-31,-4.045395383354571E-23,7.595067400543041E-24,-7.642319987313871E-32,-8.638035569488871E-32
875,5.472696003015876E-31,-5.202552558834055E-31,-4.375895439201291E-23,3.179269409021822E-24,-7.540715148695772E-32,-9.021859421812615E-32
879.9999999999999,6.042137550596591E-31,-5.257311193465456E-31,-4.6992869107855425E-23,-2.1214665726193518E-24,-7.434922664673468E-32,-9.402851282374972E-32
885,6.6569619178460305E-31,-5.26779013414434E-31,-4.997548355366178E-23,-8.341719285860922E-24,-7.327985595810759E-32,-9.778429455530744E-32
890,7.325525294306797E-31,-5.219687557459291E-31,-5.259459807301036E-23,-1.5679067617045338E-23,-7.216956583588219E-32,-1.0151902728244253E-31
894.9999999999999,8.044345109190629E-31,-5.095248514110177E-31,-5.461030252664364E-23,-2.4225301276965972E-23,-7.101531721706005E-32,-1.0520398785417774E-31
900,8.808157379816111E-31,-4.874830112229115E-31,-5.571766507390895E-23,-3.407072040671959E-23,-6.981919074037877E-32,-1.0885079509974894E-31
904.9999999999999,9.606667755361457E-31,-4.535783552919445E-31,-5.552076470142354E-23,-4.526387509241371E-23,-6.858241586800785E-32,-1.124799756302894E-31
910,1.0420218718017386E-30,-4.05474859471589E-31,-5.35489438559509E-23,-5.773290299517017E-23,-6.730674862014052E-32,-1.1609674146850366E-31
914.9999999999999,1.1218140923105159E-30,-3.4097041740844426E-31,-4.9258571766884043E-23,-7.124996285816063E-23,-6.599036825466636E-32,-1.1970035258363809E-31
920,1.1957624454330718E-30,-2.5852903889342447E-31,-4.209214637250791E-23,-8.537176614302185E-23,-6.463303756722868E-32,-1.2329443846550218E-31
924.9999999999999,1.2580040235305216E-30,-1.5944850084621842E-31,-3.1738714680065134E-23,-9.920441120455474E-23,-6.326855543153543E-32,-1.2686367783500256E-31
930,1.3034675742913487E-30,-4.4335220285705904E-32,-1.786521306177653E-23,-1.1202233440771624E-22,-6.185949210984551E-32,-1.304292895186687E-31
934.9999999999999,1.3263035713366341E-30,8.445237670105378E-32,-2.7898430855013884E-25,-1.2285969864327228E-22,-6.036551199717517E-32,-1.340070380168601E-31
940,1.3218150541347667E-30,2.1858239798094067E-31,2.0307736779787525E-23,-1.3038643736364394E-22,-5.881872512715389E-32,-1.3758005208394362E-31
945,1.2894776226254626E-30,3.479403524018219E-31,4.256558675041624E-23,-1.3367499510794614E-22,-5.725286157024324E-32,-1.4113269361300184E-31
949.9999999999999,1.2309942958311511E-30,4.659183093506703E-31,6.549914937598911E-23,-1.3239687173055115E-22,-5.562823072713773E-32,-1.4467729240869803E-31
954.9999999999999,1.1512959205938788E-30,5.655184974758988E-31,8.777082547712902E-23,-1.2660472435322258E-22,-5.394300002382246E-32,-1.4820829335002455E-31
960,1.0573777087470627E-30,6.424510023921301E-31,1.0822618320872797E-22,-1.1684981896771317E-22,-5.219749498184848E-32,-1.5172251520812546E-31
965,9.56671189192795E-31,6.9537494345745205E-31,1.2606012903910314E-22,-1.0398351933859719E-22,-5.039287068629355E-32,-1.552161312228594E-31
969.9999999999999,8.55825503877238E-31,7.255305561988758E-31,1.4086968020631905E-22,-8.896887968940762E-23,-4.85312609980453E-32,-1.5868661918616915E-31
974.9999999999999,7.599533039236113E-31,7.358134674335401E-31,1.5259274455611535E-22,-7.270233561785841E-23,-4.66147740459804E-32,-1.6213115489234224E-31
980,6.724329352907376E-31,7.299996762019999E-31,1.6142700563786106E-22,-5.592958753262136E-23,-4.464589393485321E-32,-1.6554999854698469E-31
985,5.950667651077421E-31,7.119016669490121E-31,1.6770216592472698E-22,-3.918889198990002E-23,-4.2625450678543815E-32,-1.6894575551068415E-31
989.9999999999999,5.284532881347664E-31,6.84958148570873E-31,1.7179486701813005E-22,-2.2826111237063084E-23,-4.0550531149554307E-32,-1.723276219252778E-31
994.9999999999999,4.733509003887537E-31,6.5285728630819776E-31,1.7405009083220356E-22,-7.355624975989125E-24,-3.846940401137381E-32,-1.7567807834745036E-31
1000,4.280395062410093E-31,6.171848976147293E-31,1.7485338132534942E-22,7.414664042867176E-24,-3.6340749323325834E-32,-1.7900495830307237E-31
1005,3.912891023628456E-31,5.787554889700863E-31,1.7441126070083776E-22,2.1719668372248173E-23,-3.412193519439242E-32,-1.823097070828378E-31
1010,3.6294018957321296E-31,5.39754713982952E-31,1.7293969998423987E-22,3.529161463871251E-23,-3.1855219819359646E-32,-1.855894275611308E-31
1014.9999999999999,3.4225124159936383E-31,5.020317051434253E-31,1.706929321138395E-22,4.7925813596476E-23,-2.958401964603129E-32,-1.8884233060321353E-31
1019.9999999999999,3.279583700362362E-31,4.653992360935045E-31,1.6774080033914236E-22,5.993361063831646E-23,-2.726535661435588E-32,-1.9207104381282045E-31
1025,3.1932818397369805E-31,4.303650367275714E-31,1.6416420093373777E-22,7.136235721569267E-23,-2.4899325447659817E-32,-1.9527532555901279E-31
1030,3.156883203768849E-31,3.973080189614571E-31,1.6002285426959186E-22,8.225651128474837E-23,-2.2485150310288788E-32,-1.984550649937685E-31
1035,3.1645696908154736E-31,3.6651698588248884E-31,1.5535079196346244E-22,9.264847495218402E-23,-2.0022716328832962E-32,-2.0160870626244217E-31
1039.9999999999998,3.210910521858858E-31,3.3821272810898063E-31,1.501740327762656E-22,1.0256449067134602E-22,-1.751170753321378E-32,-2.0473631431182146E-31
1045,3.2911465296332163E-31,3.1257697709084613E-31,1.4450353400000902E-22,1.1201559895650933E-22,-1.4951888072874938E-32,-2.078367422351481E-31
1050,3.4007731476787488E-31,2.8975440851123746E-31,1.3834805819258699E-22,1.210046334227331E-22,-1.2342908636624006E-32,-2.109095638654881E-31
1055,3.5356437852721457E-31,2.69872288248664E-31,1.3171110456938074E-22,1.2951998125479366E-22,-9.684594051484235E-33,-2.1395354540534826E-31
1060,3.6916960963656594E-31,2.530301211904983E-31,1.245997354716503E-22,1.3754307314490704E-22,-6.976557739867282E-33,-2.169681704458943E-31
1064.9999999999998,3.8650365515210384E-31,2.393190163182039E-31,1.170214236200559E-22,1.4504078621866766E-22,-4.218632120640893E-33,-2.199516029048073E-31
1070,4.05169049377355E-31,2.287889533284146E-31,1.08994036199305E-22,1.5198031433225865E-22,-1.4104740300724745E-33,-2.2290348600166524E-31
1075,4.247757543499863E-31,2.214767587469313E-31,1.0054031785191399E-22,1.583172221626632E-22,1.4480495577335133E-33,-2.2582227826949398E-31
1080,4.449292313274833E-31,2.1737505036891097E-31,9.16944827582948E-23,1.6400944344892076E-22,4.3574105408395024E-33,-2.287072313835226E-31
1084.9999999999998,4.646940076982995E-31,2.163747320908015E-31,8.276250541775556E-23,1.6898241030067985E-22,7.27170928535264E-33,-2.315713563054945E-31
1090,4.842712980458009E-31,2.1832182199894135E-31,7.353706666604896E-23,1.7326678307934933E-22,1.0241057871752134E-32,-2.3439958303594343E-31
1095,5.038028738545736E-31,2.2331432091922235E-31,6.380933759802556E-23,1.768115560811732E-22,1.3313924437408607E-32,-2.3717283408314564E-31
1100,5.223860538980754E-31,2.3111383174667263E-31,5.392040068740135E-23,1.795580422938679E-22,1.643828323730241E-32,-2.3990617268808394E-31
