% Model:              Untitled.mph
% Version:            COMSOL 6.1.0.282
% Date:               May 22 2025, 17:29
% Dimension:          1
% Nodes:              101
% Expressions:        3
% Description:        Table graph
% lambda0 (nm),F_x (N),F_y (N),F_z (N)
600,3.339701270388529E-25,-2.0989083355022202E-26,-3.0533840013359875E-24
605,3.7425854155100784E-25,-2.7201663180989497E-26,-3.320595913599585E-24
610,4.191887631300607E-25,-3.48128183546669E-26,-3.590608416986671E-24
615,4.684322394162212E-25,-4.368221887193258E-26,-3.8620840961364824E-24
619.9999999999999,5.226157674940401E-25,-5.377139668986994E-26,-4.145043417535866E-24
625,5.817169038296461E-25,-6.524086805986838E-26,-4.434854586422717E-24
629.9999999999999,6.469199295000316E-25,-7.84945756662565E-26,-4.7296210880961505E-24
635,7.181592983756326E-25,-9.355041536065407E-26,-5.0223527273918984E-24
639.9999999999999,7.96047936050791E-25,-1.1061584950554734E-25,-5.302379338928109E-24
645,8.795817597633709E-25,-1.29462737999985E-25,-5.549687504355786E-24
650,9.676902093387209E-25,-1.4987130874744716E-25,-5.73411460787292E-24
655,1.056176751935736E-24,-1.7071910315711211E-25,-5.810162802291592E-24
660,1.138485243548322E-24,-1.9031820837910562E-25,-5.712899239249864E-24
665,1.19920253218083E-24,-2.050990987994653E-25,-5.360831768925343E-24
670,1.228385279854175E-24,-2.1190606095393848E-25,-4.7029349023336684E-24
674.9999999999999,1.2121222841972735E-24,-2.0657647771660291E-25,-3.7192804387084735E-24
680,1.1425041586338217E-24,-1.8637989450199482E-25,-2.471322010456744E-24
684.9999999999999,1.0255471716795302E-24,-1.5243368437166478E-25,-1.1286559361664609E-24
690,8.793352288928274E-25,-1.0945865111316137E-25,1.205782915573568E-25
694.9999999999999,7.30648648523377E-25,-6.509085536406109E-26,1.094678074426154E-24
700,5.968563002183496E-25,-2.4555329447700157E-26,1.7476013940585035E-24
704.9999999999999,4.88332392514817E-25,8.56425730909661E-27,2.086137769714218E-24
710,4.094801547413224E-25,3.20602714320098E-26,2.1557975197533E-24
715,3.582510299486887E-25,4.6293756324334234E-26,2.0360083532727438E-24
720,3.287389017156534E-25,5.234424054179158E-26,1.7896593221240328E-24
725,3.161644795960427E-25,5.0976874317108574E-26,1.4652172011211514E-24
729.9999999999999,3.1652020770054893E-25,4.256329763898124E-26,1.0974607920980148E-24
735,3.2588446988924657E-25,2.787761813107366E-26,7.22918367264937E-25
739.9999999999999,3.411121174049786E-25,7.488192019968004E-27,3.670520829990127E-25
745,3.5878590473828504E-25,-1.6035064761470298E-26,6.782102763403998E-26
749.9999999999999,3.7399398817265947E-25,-3.352667107001311E-26,-1.2195367188596185E-25
755,3.7917661352144475E-25,-2.017243307222339E-26,-1.641154469336225E-25
759.9999999999999,3.7103043098203917E-25,5.325307608809585E-26,-1.9404306311187656E-25
765,3.6553748328480315E-25,1.4638517862529754E-25,-5.234417682822107E-25
770,3.7588107109776666E-25,1.8411367374718032E-25,-1.0860055685118196E-24
775,3.9260564313148885E-25,1.7412288053065202E-25,-1.6045008292354634E-24
780,4.071974066233819E-25,1.4676815201353215E-25,-2.0077840201766067E-24
784.9999999999999,4.170188364590494E-25,1.1624424827600911E-25,-2.3085600041159286E-24
790,4.217321035878211E-25,8.705455034507921E-26,-2.5279107667478517E-24
794.9999999999999,4.216747203612272E-25,6.051933790642053E-26,-2.6814608499826452E-24
800,4.174360459882702E-25,3.695109108407959E-26,-2.7816728588400393E-24
804.9999999999999,4.098171861825262E-25,1.6604094906923764E-26,-2.837825164381356E-24
810,3.9932520968993437E-25,-1.0928825671744313E-27,-2.8582191541942756E-24
814.9999999999999,3.8653969206235985E-25,-1.631022674013814E-26,-2.848893593287952E-24
820,3.720147553732953E-25,-2.9235443768551086E-26,-2.8155605856764466E-24
825,3.563055509056626E-25,-4.006211430733243E-26,-2.7634172986469856E-24
830,3.3982044549402406E-25,-4.8990731768366404E-26,-2.6967549948564304E-24
835,3.2292504900308645E-25,-5.621608244033044E-26,-2.619226534037758E-24
839.9999999999999,3.059355995408134E-25,-6.193220018633178E-26,-2.534114074775905E-24
845,2.8935195948173003E-25,-6.627307739338904E-26,-2.4462112762457773E-24
849.9999999999999,2.7310705693886892E-25,-6.949540108737466E-26,-2.35563338671736E-24
855,2.5734761393900963E-25,-7.175129376792663E-26,-2.2641054852144125E-24
859.9999999999999,2.421807304978936E-25,-7.317919491524177E-26,-2.17298334265321E-24
865,2.278810863748824E-25,-7.389962607910091E-26,-2.0851658423582357E-24
869.9999999999999,2.142670167452352E-25,-7.404437734236117E-26,-1.999468436591435E-24
875,2.0119143846984197E-25,-7.36944384241307E-26,-1.914683596015754E-24
879.9999999999999,1.8885703252511997E-25,-7.293546231067792E-26,-1.8331099331125755E-24
885,1.7741048381639933E-25,-7.186068630251125E-26,-1.7565683322631734E-24
890,1.6665835425392383E-25,-7.052335171426729E-26,-1.683490974503466E-24
894.9999999999999,1.5655106811536733E-25,-6.899216198901736E-26,-1.6140945981910519E-24
900,1.4707623068626455E-25,-6.730789613942062E-26,-1.5483120741084572E-24
904.9999999999999,1.3822971337190216E-25,-6.549579603713672E-26,-1.485941030626285E-24
910,1.2996911648034137E-25,-6.359269291234089E-26,-1.4269279555750124E-24
914.9999999999999,1.2226087213263337E-25,-6.162595950857484E-26,-1.3711495722614379E-24
920,1.15070840748344E-25,-5.961883079872091E-26,-1.3184695856420147E-24
924.9999999999999,1.0844112893854141E-25,-5.762172679032055E-26,-1.2698471923471067E-24
930,1.0225270023649911E-25,-5.561866577999564E-26,-1.2239233273790124E-24
934.9999999999999,9.641677676215968E-26,-5.359096017054452E-26,-1.1795312025326313E-24
940,9.09749797359221E-26,-5.158213692632353E-26,-1.1376395618183206E-24
945,8.595283465234544E-26,-4.96300810941111E-26,-1.0990263977845356E-24
949.9999999999999,8.126282872898627E-26,-4.771122094404242E-26,-1.0625427574063315E-24
954.9999999999999,7.688638292295703E-26,-4.582986164151575E-26,-1.028046516940067E-24
960,7.279672781766064E-26,-4.399174846901182E-26,-9.954248847017107E-25
965,6.897404497896231E-26,-4.220009733055707E-26,-9.645574477311163E-25
969.9999999999999,6.539878202040726E-26,-4.045756487982374E-26,-9.353327298115569E-25
974.9999999999999,6.205677531605778E-26,-3.8765171223081894E-26,-9.076371315192305E-25
980,5.892795892346163E-26,-3.7124996213549723E-26,-8.813785676084652E-25
985,5.599706524685229E-26,-3.553658955949071E-26,-8.564473994226818E-25
989.9999999999999,5.325118531433211E-26,-3.399674209385979E-26,-8.327097328384729E-25
994.9999999999999,5.070311660772863E-26,-3.253000136602019E-26,-8.107833157529825E-25
1000,4.8310223077433954E-26,-3.1114791287942773E-26,-7.899194096732015E-25
1005,4.604130628899951E-26,-2.9732034762721406E-26,-7.694498546629992E-25
1010,4.390973760184321E-26,-2.84011649704371E-26,-7.499460602434593E-25
1014.9999999999999,4.1926139853087886E-26,-2.713776161231066E-26,-7.319059180933282E-25
1019.9999999999999,4.00587400481307E-26,-2.5922794373483926E-26,-7.146798351083443E-25
1025,3.830062868101828E-26,-2.4755010827129374E-26,-6.982146431910719E-25
1030,3.664338430499285E-26,-2.3633422864920285E-26,-6.824643892537033E-25
1035,3.508166515165336E-26,-2.2556589229233266E-26,-6.673821401980715E-25
1039.9999999999998,3.3607625120975847E-26,-2.1523482882014713E-26,-6.529291673624349E-25
1045,3.221627097777893E-26,-2.0532689117234251E-26,-6.390656397989068E-25
1050,3.0901291937921323E-26,-1.9583024107670992E-26,-6.257573296483282E-25
1055,2.9658362226599326E-26,-1.8673074583711582E-26,-6.129699337947265E-25
1060,2.848209424028689E-26,-1.7801617589354124E-26,-6.006738132643178E-25
1064.9999999999998,2.7369541273129645E-26,-1.6967169221974498E-26,-5.888381612655356E-25
1070,2.6315259240450294E-26,-1.6168609284489066E-26,-5.774386639432223E-25
1075,2.5316352043319224E-26,-1.540455441693273E-26,-5.664493151667203E-25
1080,2.43685082222998E-26,-1.4673839567110496E-26,-5.558484823232612E-25
1084.9999999999998,2.3476441863200173E-26,-1.3983908408110117E-26,-5.460179906624151E-25
1090,2.2626245997384596E-26,-1.3324186534499605E-26,-5.364944766047956E-25
1095,2.1807694059892553E-26,-1.2685698884560268E-26,-5.268619071266037E-25
1100,2.1029070947287767E-26,-1.2075792231690731E-26,-5.175447391140246E-25
