% Model:              3D-Au-Plate-from-domen-size.mph
% Version:            COMSOL 6.1.0.282
% Date:               Feb 10 2025, 16:34
% Dimension:          2
% Nodes:              22801
% Expressions:        6
% Description:        , , , , , 
% Length unit:        nm
% cpl1x,cpl1y,real(ewfd.Ebx) (V/m) @ lambda0=800, Rs=1,imag(ewfd.Ebx) (V/m) @ lambda0=800, Rs=1,real(ewfd.Eby) (V/m) @ lambda0=800, Rs=1,imag(ewfd.Eby) (V/m) @ lambda0=800, Rs=1,real(ewfd.Ebz) (V/m) @ lambda0=800, Rs=1,imag(ewfd.Ebz) (V/m) @ lambda0=800, Rs=1
0,0,0.20502814796366237,0.8819216328296345,0.17913536261983612,0.9431213708487122,0.40775216509653667,-0.08900039765005989
0,2,0.2077244385174976,0.8942804096870735,0.18168849457310318,0.9574311457296651,0.401856431641948,-0.08763035123960931
0,4,0.210378630104686,0.9064579450814998,0.1842048041961343,0.9715468805537117,0.3958792549992912,-0.0862425450159157
0,6,0.21299018480718618,0.9184517710237837,0.18668378151506404,0.9854657145219317,0.38982184654726565,-0.08483726024202322
0,8,0.21555857334806242,0.9302594567567062,0.18912492412206675,0.9991848267407833,0.38368543392494053,-0.08341478172330781
0,10,0.21808327519875134,0.941878609247597,0.1915277372771786,1.0127014367938079,0.37747126078295307,-0.08197539774975683
0,12,0.22056377868455684,0.9533068736733229,0.19389173400856524,1.0260128053051292,0.37118058653146085,-0.08051940003754152
0,14,0.222999581088349,0.9645419338975336,0.19621643521121496,1.0391162344946354,0.3648146860849004,-0.07904708366989588
0,16,0.22539018875244896,0.975581512940067,0.1985013697440378,1.0520090687247308,0.358374849603604,-0.07755874703731323
0,18,0.22773511717867725,0.9864233734384193,0.20074607452535012,1.064688695038548,0.3518623822323255,-0.07605469177707173
0,20,0.23003389112654546,0.9970653181011848,0.20295009462672672,1.0771525436895073,0.34527860383573106,-0.0745352227121027
0,22,0.2322860447095721,1.0075051901533751,0.20511298336519942,1.0893980886621228,0.33862484873090487,-0.07300064778921254
0,24,0.23449112148970275,1.0177408737735278,0.2072343023937854,1.1014228481839408,0.33190246541692686,-0.07145127801667261
0,26,0.23664867456981523,1.0277702945225136,0.2093136217903262,1.113224385228516,0.32511281630157607,-0.06988742740118718
0,28,0.23875826668429057,1.0375914197639584,0.21135052014461814,1.1248003080093163,0.31825727742521487,-0.06830941288425521
0,30,0.24081947028763273,1.0472022590761911,0.21334458464381864,1.1361482704644599,0.31133723818191056,-0.06671755427793645
0,32,0.24283186764111878,1.0566008646556384,0.21529541115611084,1.147265972732187,0.3043541010378503,-0.06511217420003555
0,34,0.24479505089745968,1.0657853317115802,0.2172026043126064,1.1581511616169635,0.29730928124710754,-0.06349359800871875
0,36,0.2467086221834585,1.0747537988521887,0.21906577758747497,1.1688016310461342,0.29020420656481544,-0.061862153736573555
0,38,0.24857219368064618,1.083504448461772,0.2208845533762801,1.1792152225170183,0.28304031695780796,-0.060218172024127936
0,40,0.2503853877038795,1.0920355070691459,0.22265856307250723,1.1893898255343702,0.27581906431278547,-0.05856198605283985
0,42,0.2521478367778858,1.100345245707057,0.22438744714226824,1.1993233780381058,0.26854191214206485,-0.056893931477572435
0,44,0.2538591837117377,1.1084319802625908,0.22607085519716724,1.2090138668212167,0.26121033528697263,-0.05521434635856738
0,46,0.25551908167124493,1.1162940718184835,0.22770844606531318,1.21845932793778,0.2538258196189438,-0.05352357109293165
0,48,0.25712719424924535,1.123929926985278,0.22929988786046335,1.2276578471009865,0.2463898617383833,-0.051821948345649946
0,50,0.2586831955337843,1.131337998224254,0.2308448580492872,1.2366075600711053,0.2389039686713541,-0.050109822980137234
0,52,0.26018677017416636,1.1385167841610595,0.23234304351673232,1.245306653033303,0.23136965756415284,-0.04838754198834693
0,54,0.261637613444866,1.145464829889995,0.2337941406294828,1.2537533629652455,0.22378845537583272,-0.04665545442044628
0,56,0.2630354313072863,1.152180727268872,0.23519785529749618,1.2619459779944042,0.2161618985687396,-0.04491391131407583
0,58,0.2643799404693509,1.158663115204399,0.23655390303360582,1.2698828377449989,0.20849153279712043,-0.04316326562320493
0,60,0.26567086844291704,1.16491067992803,0.23786200901117682,1.2775623336744986,0.2007789125938708,-0.04140387214660021
0,62,0.2669079535990013,1.170922155262224,0.2391219081198045,1.2849829093996235,0.19302560105547986,-0.03963608745591889
0,64,0.2680909452208027,1.176696322877055,0.24033334501904405,1.2921430610117712,0.18523316952524413,-0.037860269823443406
0,66,0.2692196035545147,1.1822320125371317,0.24149607419015942,1.299041337381811,0.1774031972748053,-0.036076779149471765
0,68,0.2702936998579158,1.1875281023387614,0.24260985998588167,1.3056763404541802,0.16953727118408463,-0.03428597688937677
0,70,0.2713130164467278,1.1925835189373284,0.2436744766781675,1.312046725530224,0.16163698541967333,-0.0324882259803513
0,72,0.27227734673873344,1.1973972377648208,0.24468970850394664,1.318151201540722,0.15370394111174812,-0.030683890767852832
0,74,0.2731864952956441,1.2019682832374814,0.2456553497088502,1.3239885313075463,0.14573974602957362,-0.028873336931762236
0,76,0.2740402778627083,1.2062957289535232,0.24657120458891,1.3295575317943973,0.13774601425565977,-0.027056931412272483
0,78,0.2748385214060544,1.2103786978808835,0.24743708753022167,1.334857074346565,0.12972436585864044,-0.025235042335521932
0,80,0.2755810641477591,1.2142163625349682,0.24825282304656282,1.3398860849196732,0.1216764265649382,-0.023408038938986835
0,82,0.27626775559863426,1.217807945146356,0.2490182458149576,1.3446435442973508,0.11360382742928289,-0.021576291496649688
0,84,0.27689845658872614,1.221152717818428,0.24973320070918303,1.349128488297795,0.10550820450414926,-0.019740171243955787
0,86,0.2774730392955207,1.2242500026748868,0.25039754283120735,1.3533400079691777,0.09739119850818355,-0.0179000503025768
0,88,0.2779913872698492,1.2270991719971416,0.2510111375405569,1.3572772497738645,0.08925445449368256,-0.01605630160499324
0,90,0.27845339545948833,1.2296996483515252,0.2515738604816025,1.3609394157613937,0.08109962151319551,-0.014209298818913673
0,92,0.2788589702304513,1.2320509047063217,0.2520855976087632,1.3643257637301984,0.07292835228531495,-0.012359416271543905
0,94,0.27920802938596384,1.234152464538578,0.25254624520961855,1.367435607378026,0.06474230285972439,-0.010507028873723755
0,96,0.27950050218312333,1.2360039019306797,0.25295570992592875,1.3702683164410279,0.05654313228157151,-0.008652512043944157
0,98,0.27973632934723563,1.237604841656671,0.2533139087725545,1.3728233168214943,0.04833250225523325,-0.0067962416322628625
0,100,0.2799154630838286,1.2389549592583002,0.253620769154276,1.375100090704206,0.040112076807542925,-0.004938593844130989
0,102,0.2800378670883379,1.2400539811107774,0.2538762288805052,1.377098176661376,0.031883521950546126,-0.0030799451641493536
0,104,0.28010351655346544,1.2409016844782286,0.2540802361778899,1.3788171697461697,0.023648505343854518,-0.0012206722797665638
0,106,0.2801123981742065,1.241497897558838,0.2542327497008069,1.3802567215747708,0.015408695956665686,6.388479950627167E-4
0,108,0.28006451015054623,1.2418424995196653,0.2543337385397406,1.381416540396989,0.007165763729517559,0.002498238796245838
0,110,0.2799598621878246,1.2419354205211361,0.2543831822275484,1.3822963911553887,-0.00107862076415446,0.004357123285930426
0,112,0.27979847549476966,1.2417766417311946,0.2543810707436078,1.3828960955329264,-0.009322786656587593,0.006215124728876731
0,114,0.27958038277919867,1.2413661953291217,0.2543274045158476,1.3832155319890895,-0.017565063124322884,0.008071866568809814
0,116,0.2793056282413899,1.2407041644990122,0.25422219442066146,1.3832546357845308,-0.02580377972682575,0.009926972504735357
0,118,0.27897426756512417,1.2397906834129162,0.25406546178070305,1.3830133989941866,-0.03403726674503015,0.011780066567203136
0,120,0.27858636790639996,1.2386259372036477,0.2538572383605651,1.3824918705088838,-0.04226385551973611,0.013630773194504061
0,122,0.2781420078798227,1.237210161927263,0.25359756636034164,1.3816901560254318,-0.05048187878979277,0.015478717308784536
0,124,0.27764127754267254,1.235543644515221,0.2532864984070752,1.3806084180251996,-0.058689671029997316,0.01732352439206183
0,126,0.2770842783766523,1.2336267227162308,0.2529240975440912,1.3792468757411884,-0.06688556878864374,0.01916482056212762
0,128,0.276471123267321,1.2314597850278008,0.2525104372182213,1.3776058051135986,-0.07506791102464813,0.021002232648320455
0,130,0.27580193648121487,1.2290432706175043,0.25204560126491776,1.3756855387339066,-0.08323503944418942,0.022835388267156514
0,132,0.275076853640663,1.2263776692339725,0.251529683891263,1.3734864657774577,-0.09138529883679126,0.02466391589779872
0,134,0.2742960216963014,1.223463521107641,0.25096278965687685,1.371009031924596,-0.09951703741077736,0.026487444957352304
0,136,0.2734595988972904,1.2203014168412598,0.25034503345272546,1.3682537392703364,-0.10762860712803891,0.028305605875969947
0,138,0.27256775475924305,1.2168919972902,0.2496765404778371,1.365221146222608,-0.11571836403803466,0.030118030171751034
0,140,0.27162067002986934,1.2132359534325714,0.24895744621392807,1.3619118673890833,-0.12378466861096869,0.03192435052542156
0,142,0.2706185366523454,1.2093340262291854,0.24818789639794517,1.3583265734526155,-0.13182588607006848,0.033724200854777335
0,144,0.26956155772641194,1.2051870064733847,0.2473680469925294,1.354465991035315,-0.1398403867229011,0.0355172163888768
0,146,0.26844994746721323,1.2007957346307774,0.24649806415440756,1.3503309025512862,-0.14782654629165803,0.03730303374196871
0,148,0.2672839311618822,1.1961611006688988,0.24557812420071745,1.3459221460480557,-0.15578274624234514,0.03908129098713819
0,150,0.2660637451238827,1.1912840438768488,0.2446084135732747,1.3412406150367318,-0.16370737411280392,0.04085162772965754
0,152,0.26478963664511584,1.186165552674924,0.24358912880078645,1.336287258310914,-0.17159882383950745,0.042613685180026395
0,154,0.2634618639458021,1.1808066644142987,0.2425204764590218,1.3310630797544067,-0.17945549608305578,0.04436710622668714
0,156,0.2620806961221491,1.17520846516679,0.24140267312894548,1.3255691381377641,-0.1872757985523103,0.04611153550839912
0,158,0.26064641309181363,1.1693720895047424,0.24023594535282397,1.319806546903711,-0.19505814632709914,0.04784661948625932
0,160,0.25915930553717254,1.1632987202710903,0.23902052958831285,1.313776473941485,-0.2028009621794283,0.04957200651535263
0,162,0.2576196748464098,1.1569895883396326,0.23775667216053442,1.3074801413501433,-0.2105026768931352,0.051287346916019404
0,164,0.25602783305243587,1.150445972365576,0.2364446292121558,1.3009188251908843,-0.21816172958191704,0.05299229304472357
0,166,0.25438410276964835,1.1436691985263914,0.23508466665147704,1.294093855228429,-0.22577656800567145,0.05468649936450909
0,168,0.2526888171285485,1.136660640253043,0.23367706009854022,1.2870066146615227,-0.23334564888508513,0.05636962251502848
0,170,0.2509423197082269,1.1294217179516375,0.2322220948292702,1.2796585398426068,-0.24086743821440626,0.05804132138213143
0,172,0.2491449644667309,1.1219538987155544,0.2307200657176586,1.2720511199867144,-0.24834041157233727,0.05970125716699693
0,174,0.24729711566932894,1.114258696028114,0.2291712771760024,1.2641858968696573,-0.2557630544309855,0.06134909345479709
0,176,0.2453991478146859,1.1063376694558444,0.22757604309320972,1.2560644645155576,-0.263133862462808,0.06298449628287722
0,178,0.2434514455589645,1.098192424332407,0.22593468677118403,1.2476884688737904,-0.2704513418454908,0.06460713420843942
0,180,0.24145440363786788,1.0898246114332484,0.22424754085930274,1.239059607485404,-0.27771400956469655,0.06621667837571485
0,182,0.23940842678663968,1.0812359266410418,0.22251494728699855,1.2301796291390839,-0.28492039371462446,0.06781280258261246
0,184,0.2373139296580372,1.0724281106019875,0.22073725719446236,1.2210503335167302,-0.29206903379631677,0.06939518334682944
0,186,0.23517133673829518,1.0634029483730412,0.21891483086147864,1.2116735708287216,-0.29915848101365394,0.07096349997141016
0,188,0.2329810822610963,1.0541622690601384,0.2170480376344083,1.202051241438936,-0.3061872985669795,0.07251743460974135
0,190,0.2307436101195654,1.044707945447498,0.21513725585133392,1.192185295479611,-0.3131540619442917,0.07405667232996921
0,192,0.22845937377630776,1.0350418936180668,0.2131828727653833,1.1820777324561145,-0.3200573592099456,0.07558090117882575
0,194,0.22612883617150678,1.0251660725651952,0.2111852844662461,1.171730600841711,-0.3268957912908064,0.07708981224485145
0,196,0.22375246962910061,1.0150824837956098,0.20914489579989887,1.1611459976624017,-0.33366797225979633,0.0785830997210017
0,198,0.2213307557610583,1.0047931709237758,0.2070621202865563,1.1503260680719267,-0.3403725296167764,0.08006046096662377
0,200,0.2188641853697718,0.9943002192577222,0.2049373800368639,1.1392730049170126,-0.34700810456670744,0.08152159656879245
0,202,0.21635325834858746,0.9836057553764168,0.20277110566635065,1.1279890482929524,-0.3535733522950339,0.08296621040299074
0,204,0.21379848358049316,0.9727119466987809,0.20056373620815623,1.1164764850896134,-0.36006694224023317,0.08439400969312526
0,206,0.21120037883498435,0.9616210010444207,0.1983157190240543,1.1047376485279583,-0.36648755836347774,0.08580470507086212
0,208,0.20855947066312924,0.950335166186177,0.1960275097137856,1.0927749176871762,-0.37283389941535305,0.0871980106342724
0,210,0.20587629429085463,0.9388567293945731,0.19369957202272478,1.080590717022523,-0.37910467919957824,0.08857364400577507
0,212,0.20315139351047184,0.9271880169742615,0.1913323777478922,1.068187515873962,-0.38529862683367616,0.08993132638936614
0,214,0.20038532057046887,0.9153313937925559,0.18892640664233729,1.0555678279657097,-0.39141448700653975,0.0912707826271209
0,216,0.19757863606358725,0.9032892628001514,0.18648214631790827,1.0427342108967863,-0.39745102023284273,0.09259174125495997
0,218,0.1947319088132077,0.8910640645441228,0.18400009214642818,1.0296892656226717,-0.40340700310424343,0.09389393455766601
0,220,0.1918457157580692,0.8786582766733091,0.18148074715930024,1.0164356359281812,-0.40928122853732823,0.09517709862314079
0,222,0.1889206418353416,0.8660744134361704,0.17892462194555964,1.0029760078916514,-0.41507250601824924,0.09644097339589162
0,224,0.18595727986207786,0.8533150251712347,0.17633223454839297,0.9893131093405634,-0.4207796618440025,0.09768530272973616
0,226,0.18295623041507003,0.8403826977902262,0.17370411036014863,0.9754497092986991,-0.42640153936029906,0.09890983443971492
0,228,0.179918101709131,0.8272800522539856,0.1710407820158565,0.9613886174249512,-0.4319369991959809,0.10011432035320082
0,230,0.17684350947383085,0.8140097440412881,0.16834278928528124,0.9471326834438984,-0.4373849194939341,0.10129851636019557
0,232,0.17373307682870562,0.8005744626106618,0.16561067896352577,0.9326847965682553,-0.4427441961384542,0.10246218246280339
0,234,0.17058743415697475,0.7869769308553249,0.16284500476021765,0.9180478849133274,-0.44801374297901225,0.10360508282386986
0,236,0.16740721897778066,0.7732199045513438,0.16004632718728695,0.9032249149035776,-0.4531924920503831,0.10472698581477917
0,238,0.16419307581698517,0.7593061717991232,0.1572152134453707,0.8882188906714226,-0.4582793937890878,0.10582766406239731
0,240,0.16094565607654518,0.7452385524583564,0.1543522373088588,0.8730328534484023,-0.46327341724610477,0.10690689449515316
0,242,0.15766561790249436,0.7310198975765251,0.15145797900960903,0.857669880948815,-0.4681735502958097,0.10796445838824825
0,244,0.15435362605155886,0.7166530888110874,0.14853302511935304,0.8421330867459662,-0.4729787998411015,0.10900014140798446
0,246,0.1510103517564328,0.7021410378454609,0.14557796843081755,0.8264256196411509,-0.47768819201466906,0.11001373365520307
0,248,0.14763647258974066,0.6874866857989188,0.14259340783758373,0.8105506630254928,-0.48230077237636354,0.11100502970782428
0,250,0.1442326723267165,0.67269300263052,0.13957994821271236,0.7945114342347749,-0.48681560610663166,0.11197382866247922
0,252,0.1407996408066239,0.6577629865371972,0.13653820028615474,0.7783111838973912,-0.49123177819597363,0.11291993417522712
0,254,0.1373380737929495,0.6426996633461194,0.13346878052097855,0.7619531952755503,-0.49554839363038455,0.11384315450134717
0,256,0.13384867283239185,0.6275060859014527,0.1303723109884292,0.7454407835998628,-0.49976457757274667,0.11474330253419976
0,258,0.13033214511268407,0.6121853334456533,0.12724941924185867,0.7287772953974558,-0.5038794755401284,0.11562019584314587
0,260,0.12678920331926755,0.5967405109954017,0.12410073818953897,0.7119661078137393,-0.5078922535769609,0.11647365671052068
0,262,0.12322056549085465,0.5811747487123186,0.12092690596639308,0.6950106279279683,-0.5118020984240536,0.11730351216765067
0,264,0.11962695487390615,0.5654912012685845,0.11772856580466624,0.677914292062742,-0.5156082176834151,0.11810959402990871
0,266,0.11600909977605184,0.5496930472075877,0.11450636590356277,0.6606805650875689,-0.5193098399788469,0.11889173893079995
0,268,0.11236773341848716,0.5337834882997393,0.11126095929787788,0.6433129397166542,-0.5229062151122756,0.11964978835507051
0,270,0.10870359378737238,0.5177657488935781,0.1079930037256485,0.6258149358010391,-0.5263966142157941,0.12038358867083371
0,272,0.10501742348426786,0.5016430752623006,0.10470316149485182,0.6081900996152423,-0.5297803298993786,0.12109299116070574
0,274,0.10130996957563221,0.48541873494584725,0.10139209934917637,0.5904420031385458,-0.5330566763942545,0.12177785205194629
0,276,0.09758198344141618,0.4690960160886788,0.09806048833289495,0.5725742433310713,-0.5362249896918786,0.12243803254559647
0,278,0.09383422062278333,0.4526782267733761,0.09470900365486651,0.5545904414047932,-0.5392846276785119,0.1230733988446086
0,280,0.0900674406689858,0.43616869435020106,0.09133832455169275,0.5364942420896378,-0.542234970265356,0.12368382218096288
0,282,0.086282406983428,0.4195707647627491,0.08794913415005834,0.5182893128948147,-0.5450754195142238,0.1242691788417642
0,284,0.0824798866689513,0.4028878018698393,0.0845421193282857,0.49997934336553485,-0.5478053997587224,0.1248293501943146
0,286,0.0786606503723651,0.38612318676376384,0.08111797057712417,0.4815680443352539,-0.5504243577209227,0.1253642227101568
0,288,0.0748254721282639,0.369280317085058,0.07767738185981252,0.46305914717361557,-0.5529317626234891,0.12587368798808193
0,290,0.07097512920215451,0.35236260633390437,0.0742210504714341,0.4444564030302188,-0.5553271062972527,0.12635764277609973
0,292,0.06711040193293002,0.3353734831783292,0.07074967689759785,0.425763582074384,-0.5576099032841992,0.12681598899236365
0,294,0.06323207357472047,0.3183163907593235,0.06726396467247323,0.40698447273106264,-0.5597796909358559,0.12724863374504927
0,296,0.05934093013815296,0.3011947859930299,0.06376462023620616,0.38812288091304714,-0.5618360295070554,0.1276554893511804
0,298,0.05543776023105337,0.28401213887014065,0.060252352791747614,0.3691826292496377,-0.5637785022450577,0.12803647335439927
0,300,0.0515233548986201,0.26677193175264113,0.05672787416112017,0.35016755631191804,-0.5656067154740122,0.1283915085416782
2,0,0.21087819943611694,0.8805411364115134,0.18539225440010862,0.9419114131917818,0.4071523581308179,-0.09170526806730489
2,2,0.21365647337148833,0.8928817418303211,0.18804032444023086,0.9562039239920911,0.4012658495343247,-0.0902961134704786
2,4,0.2163914461102814,0.9050413892504591,0.19065028484143248,0.9703026434533015,0.39529801744148896,-0.08886865879737597
2,6,0.219082563362751,0.917017614308106,0.19322160664989074,0.9842047142249526,0.3892500713371742,-0.0874231933464883
2,8,0.2217292797272282,0.9288079898131685,0.19575376874256456,0.997907318810855,0.3831232369427408,-0.08596001006650389
2,10,0.22433105880065524,0.9404101262411942,0.19824625793281,1.0114076801401088,0.37691875596763164,-0.0844794054969372
2,12,0.2268873732872976,0.9518216722176511,0.2006985690743861,1.0247030621299238,0.37063788585771823,-0.08298167970802944
2,14,0.22939770510560883,0.9630403149944728,0.20311020516383146,1.0377907702401352,0.3642818995404574,-0.08146713623993439
2,16,0.23186154549322935,0.9740637809187784,0.20548067744119078,1.0506681520192966,0.3578520851669109,-0.07993608204120096
2,18,0.23427839511009574,0.9848898358936674,0.20780950548907037,1.0633325976422483,0.3513497458506786,-0.0783888274065643
2,20,0.2366477641396409,0.9955162858309979,0.21009621733000328,1.0757815404390418,0.34477619940379983,-0.07682568591405951
2,22,0.2389691723880632,1.0059409770960572,0.21234034952210373,1.0880124574151209,0.33813277806967673,-0.07524697436146931
2,24,0.2412421493816472,1.0161617969440326,0.21454144725299135,1.1000228697626495,0.33142082825307095,-0.07365301270211984
2,26,0.24346623446211246,1.026176673948197,0.21669906443196735,1.111810343362887,0.32464171024723204,-0.07204412398003608
2,28,0.24564097687997455,1.0359835784197189,0.21881276378042244,1.1233724892795025,0.31779679795821,-0.07042063426447175
2,30,0.2477659358858961,1.045580522819013,0.2208821169204578,1.1347069642427354,0.31088747862640953,-0.06878287258382579
2,32,0.24984068082001432,1.0549655621585514,0.22290670446170555,1.1458114711242997,0.30391515254544177,-0.06713117085895841
2,34,0.2518647911992195,1.0641367943970488,0.2248861160863231,1.156683759402936,0.29688123277832995,-0.0654658638359224
2,36,0.25383785680237486,1.0730923608249423,0.22681995063215285,1.167321625620521,0.28978714487112833,-0.06378728901812036
2,38,0.2557594777534541,1.0818304464410946,0.22870781617402416,1.1777229138286343,0.28263432656400994,-0.062095786597904074
2,40,0.2576292646025836,1.090349280320632,0.23054933010318343,1.1878855160254995,0.2754242274998839,-0.06039169938762871
2,42,0.25944683840497135,1.0986471359738559,0.23234411920483686,1.1978073725832072,0.2681583089306,-0.05867537275017572
2,44,0.2612118307977059,1.1067223316961439,0.23409181973378887,1.2074864726651362,0.26083804342080047,-0.05694715452895892
2,46,0.26292388407441264,1.1145732309087775,0.2357920774881613,1.2169208546334815,0.2534649145494794,-0.05520739497742841
2,48,0.2645826512577482,1.122198242490623,0.23744454788117839,1.2261086064468159,0.2460404166093096,-0.053456446688085524
2,50,0.2661877961697221,1.1295958211005999,0.23904889601100354,1.2350478660475992,0.23856605430379835,-0.05169466452102345
2,52,0.2677389934998288,1.1367644674908712,0.24060479672861315,1.2437368217395546,0.23104334244233268,-0.04992240553200909
2,54,0.2692359288709776,1.1437027288106916,0.24211193470369297,1.2521737125548418,0.22347380563317726,-0.04814002890011923
2,56,0.2706782989032062,1.1504091989008536,0.24357000448854615,1.2603568286109474,0.21585897797448617,-0.04634789585494701
2,58,0.27206581127516705,1.1568825185786693,0.24497871057999715,1.2682845114572225,0.20820040274339072,-0.04454636960339187
2,60,0.27339818478336986,1.1631213759134331,0.24633776747928046,1.2759551544109957,0.20049963208322824,-0.04273581525605012
2,62,0.2746751493991734,1.1691245064923068,0.24764689974990184,1.2833672028831964,0.19275822668897288,-0.04091659975321827
2,64,0.27589644632351135,1.1748906936765753,0.24890584207346084,1.290519154693418,0.18497775549093345,-0.039089091790526526
2,66,0.27706182803934193,1.1804187688482188,0.25011433930342164,1.2974095603743625,0.17715979533678278,-0.0372536617442164
2,68,0.2781710583618123,1.1857076116467542,0.2512721465168231,1.3040370234655985,0.16930593067198205,-0.03541068159607692
2,70,0.2792239124861248,1.1907561501962962,0.2523790290639167,1.3104002007965798,0.16141775321866494,-0.03356052485805659
2,72,0.2802201770330981,1.1955633613227896,0.2534347626157223,1.3164978027588607,0.15349686165304866,-0.03170356649656466
2,74,0.28115965009241156,1.2001282707613752,0.2544391332094926,1.3223285935674587,0.14554486128143335,-0.02984018285647746
2,76,0.2820421412635266,1.2044499533538398,0.25539193729207565,1.3278913915113073,0.13756336371485905,-0.02797075158486569
2,78,0.28286747169427434,1.2085275332361187,0.25629298176116955,1.3331850691927505,0.12955398654248476,-0.026095651554457595
2,80,0.2836354741171029,1.212360184015801,0.25714208400445715,1.3382085537560289,0.12151835300375646,-0.024215262786853806
2,82,0.2843459928829774,1.2159471289396142,0.2579390719366156,1.3429608271047142,0.11345809165942847,-0.022329966375509765
2,84,0.2849988839929247,1.2192876410508469,0.258683784034193,1.3474409261080416,0.10537483606150842,-0.02044014440849992
2,86,0.2855940151272177,1.2223810433366793,0.2593760693683437,1.3516479427961074,0.09727022442218819,-0.018546179891081097
2,88,0.2861312656721915,1.2252267088653903,0.2600157876354161,1.3555810245438833,0.08914589928183318,-0.01664845666807025
2,90,0.2866105267446885,1.2278240609134172,0.2606028091853885,1.359239374244016,0.08100350717609196,-0.01474735934605126
2,92,0.28703170121412547,1.2301725730822397,0.2611370150481444,1.3626222504683763,0.0728446983021976,-0.01284327321542752
2,94,0.2873947037221781,1.2322717694050613,0.261618296957584,1.3657289676183197,0.06467112618452651,-0.010936584172336745
2,96,0.2876994607000813,1.234121224443274,0.262046557373566,1.3685588960636375,0.056484447339482775,-0.009027678640441865
2,98,0.2879459103835381,1.2357205633726802,0.26242170950167626,1.3711114622701601,0.048286320939776944,-0.007116943492616012
2,100,0.2881340028252383,1.2370694620594578,0.2627436773108178,1.373386148915996,0.04007840847816501,-0.005204765972535432
2,102,0.2882636999049804,1.2381676471258507,0.26301239554861994,1.3753824949963736,0.03186237343071853,-0.0032915336161985663
2,104,0.2883349753373979,1.2390148960055747,0.26322780975466276,1.3771000959170734,0.023639880919692335,-0.001377634173384488
2,106,0.28834781467728576,1.2396110369889233,0.2633898762715148,1.3785386035764262,0.015412597376058258,5.36544470931046E-4
2,108,0.2883022153225289,1.2399559492575685,0.26349856225358037,1.3796977264358607,0.007182190201774314,0.0024506143751872283
2,110,0.28819818651462875,1.2400495629090462,0.26355384567375684,1.38057722957899,-0.0010496725681434158,0.0043641876198611705
2,112,0.28803574933683074,1.2398918589709234,0.2635557153278987,1.3811769347592207,-0.009281322603677153,0.006276876386086817
2,114,0.28781493670985114,1.239482869404643,0.2635041708370879,1.3814967204358781,-0.017511091617923802,0.008188293034252982
2,116,0.2875357933852057,1.2388226770990471,0.2633992226477111,1.381536521798839,-0.025737311705201427,0.01009805018256546
2,118,0.28719837593613884,1.237911415853577,0.2632408920293423,1.3812963307816652,-0.03395831567908004,0.012005760785556244
2,120,0.28680275274615946,1.2367492703511571,0.2630292110704325,1.38077619606324,-0.04217243741026584,0.013911038212525657
2,122,0.2863490039951809,1.235336476120766,0.2627642226718057,1.3799762230579018,-0.050378012164270375,0.01581349632589902
2,124,0.2858372216432713,1.233673319489701,0.26244598053796514,1.3788965738940786,-0.058573376938799354,0.01771274955948478
2,126,0.28526750941201623,1.2317601375255505,0.26207454916620865,1.3775374673814325,-0.0667568708007879,0.01960841299661587
2,128,0.28463998276349844,1.2295973179678812,0.26165000383355724,1.3758991789665125,-0.074926835223018,0.021500102448159926
2,130,0.28395476887689614,1.2271852991496552,0.26117243058149897,1.3739820406769314,-0.08308161442024739,0.02338743453038186
2,132,0.2832120066227089,1.2245245699083938,0.2606419261985512,1.371786441054073,-0.09121955568478418,0.025270026742642972
2,134,0.28241184653461315,1.221615669487108,0.2600585982006446,1.3693128250743491,-0.09933900972143497,0.027147497544921708
2,136,0.28155445077895314,1.21845918742501,0.259422564809333,1.3665616940590173,-0.10743833098176515,0.029019466435139248
2,138,0.2806399931218761,1.2150557634380326,0.2587339549278343,1.3635336055725777,-0.11551587799759687,0.030885554026274728
2,140,0.2796686588941146,1.2114060872891812,0.25799290811490544,1.360229173309775,-0.1235700137136811,0.03274538212325491
2,142,0.2786406449534269,1.2075108986487397,0.2571995745565586,1.3566490669712217,-0.13159910581947565,0.034598573799601746
2,144,0.2775561596446996,1.2033709869443647,0.25635411503562355,1.35279401212767,-0.13960152707996099,0.03644475347382287
2,146,0.27641542275772313,1.1989871912010932,0.2554567008991618,1.3486647900729658,-0.14757565566542785,0.03828354698553048
2,148,0.27521866548264795,1.1943603998713002,0.25450751402374056,1.344262237665703,-0.1555198754801689,0.04011458167127042
2,150,0.2739661303631293,1.189491550654639,0.25350674677857216,1.3395872471596204,-0.16343257649000917,0.041937486440049875
2,152,0.27265807124717173,1.1843816303079986,0.252454601986527,1.3346407660227713,-0.17131215504860703,0.043751891848544555
2,154,0.27129475323568236,1.1790316744455211,0.25135129288302815,1.3294237967455027,-0.17915701422246097,0.04555743017597357
2,156,0.26987645262874377,1.173442767328717,0.2501970430728351,1.3239373966372827,-0.18696556411455634,0.04735373549862384
2,158,0.2684034568696167,1.16761604164672,0.24899208648472684,1.3181826776124181,-0.1947362221865849,0.04914044376401118
2,160,0.26687606448648477,1.1615526782867283,0.247736667324092,1.3121608059647076,-0.20246741357967438,0.050917192864661794
2,162,0.2652945850319527,1.155253906094676,0.2464310400234361,1.3058730021310687,-0.21015757143356067,0.05268362271149976
2,164,0.2636593390203099,1.148721001626189,0.24507546919081674,1.299320540444199,-0.21780513720413944,0.05443937530682509
2,166,0.2619706578625727,1.1419552888878652,0.24367022955621595,1.2925047488743064,-0.22540856097933204,0.056184094816868466
2,168,0.26022888379931847,1.134958139068945,0.24221560591586158,1.2854270087599766,-0.23296630179320174,0.05791742764390688
2,170,0.25843436983132395,1.1277309702634135,0.24071189307450808,1.2780887545282185,-0.2404768279382581,0.05963902249792661
2,172,0.2565874796480245,1.1202752471825999,0.23915939578568982,1.2704914734037527,-0.24793861727588365,0.061348530467817866
2,174,0.25468858755380497,1.1125924808583285,0.2375584286899565,1.262636705107601,-0.25535015754482143,0.06304560509208829