% Model:              2D-Au-Plate.mph
% Version:            COMSOL 6.1.0.282
% Date:               Feb 25 2025, 15:16
% Dimension:          1
% Nodes:              91
% Expressions:        5
% Description:        Table graph
% R0 (nm),C_ED (m^2),C_MD (m^2),C_EQ (m^2),C_MQ (m^2),C_full (m^2)
19.999999999999996,3.1604220097446156E-18,2.0205912127066383E-21,2.1520798152918368E-23,1.900326580848319E-27,3.1624641236558017E-18
21,4.34223162227178E-18,3.292641394875771E-21,3.4804493309328763E-23,3.800152664442882E-27,4.345559071960118E-18
22,5.885277359964691E-18,5.247301743337914E-21,5.503598494539115E-23,7.364153141622951E-27,5.890579705057127E-18
22.999999999999996,7.878262432834533E-18,8.194745444197045E-21,8.526580902513972E-23,1.386827260091473E-26,7.88654245795603E-18
24,1.0427084224557679E-17,1.2563565678744025E-20,1.2965207925199356E-22,2.544325741965348E-26,1.0439777467758931E-17
25,1.3657425726561626E-17,1.8938484510204688E-20,1.9379842887707122E-22,4.5573709536251754E-26,1.3676558055074417E-17
25.999999999999996,1.771763373727621E-17,2.810803073325524E-20,2.8514125744741493E-22,7.985076135432908E-26,1.7746026989117675E-17
26.999999999999996,2.2781820770240598E-17,4.112442421115078E-20,4.1346482361436644E-22,1.3708919874567903E-25,2.282335879636456E-17
28,2.905371344180118E-17,5.937828550702212E-20,5.914937197070243E-22,2.309638342272549E-25,2.911368345199175E-17
28.999999999999996,3.677026414038392E-17,8.469135194934893E-20,8.3562417624476375E-22,3.8237499937665555E-25,3.6855791498884515E-17
30,4.62066674354139E-17,1.1943099913068458E-19,1.1668427060974832E-21,6.2282824902903765E-25,4.632726590007893E-17
30.999999999999996,5.768043699951181E-17,1.666510266604597E-19,1.6116233350878707E-21,9.992130378041926E-25,5.784870064872039E-17
31.999999999999996,7.155746492311671E-17,2.3026401968458704E-19,2.2033745896158832E-21,1.5804841156041058E-24,7.178993389787502E-17
33,8.825837898689656E-17,3.1525187418812666E-19,2.9836925492779934E-21,2.4669305630581192E-24,8.857661702056453E-17
33.99999999999999,1.0826455552274053E-16,4.2792201149374E-19,4.0041824369052975E-21,3.802910071891257E-24,1.0869648551958124E-16
35,1.3212602519558284E-16,5.762182215477431E-19,5.328422027457005E-21,5.794210556383163E-24,1.327075776333686E-16
36,1.6046967949103023E-16,7.700975254664472E-19,7.034204212322741E-21,8.731550161266833E-24,1.6124681995225916E-16
36.99999999999999,1.9400837775368324E-16,1.0219856812320363E-18,9.216311083080057E-21,1.3022134353063607E-23,1.950395927681327E-16
38,2.335510361485879E-16,1.347327258603691E-18,1.19894560650348E-20,1.9231819482653208E-23,2.349103720950761E-16
39,2.800143731301536E-16,1.7652493799937534E-18,1.549192512637693E-20,2.8141043059360475E-23,2.8179514257631677E-16
39.99999999999999,3.344351062386244E-16,2.2993600576627125E-18,1.9889721258740376E-20,4.0818593232681877E-23,3.3675439683613903E-16
41,3.9798347548925674E-16,2.9787127234128566E-18,2.5380333596158812E-20,5.871850253762854E-23,4.009876272647683E-16
42,4.719764899565857E-16,3.838963037628212E-18,3.219967247934455E-20,8.380643103987289E-23,4.758477364731243E-16
42.99999999999999,5.579007494808624E-16,4.9237655849519E-18,4.062548349524846E-20,1.1872434676990184E-22,5.628652592736564E-16
44,6.574261967359214E-16,6.2864515676806705E-18,5.0986304791881546E-20,1.670027005933909E-22,6.637638016110945E-16
45,7.724277977499986E-16,7.99205363748762E-18,6.366835111337915E-20,2.333347908442444E-22,7.804837530733904E-16
45.99999999999999,9.050114227749816E-16,1.0119740163511418E-17,7.9123995662948E-20,3.2392915705003555E-22,9.152106108633128E-16
47,1.0575311377423442E-15,1.2765756708583717E-17,9.78783394010933E-20,4.469585370642022E-22,1.0703952197488662E-15
48,1.232628482193997E-15,1.604696847099594E-17,1.2054532725852544E-19,6.1313424074374235E-22,1.2487966091264923E-15
48.99999999999999,1.4332565202558293E-15,2.0105156293150326E-17,1.4783570133823746E-19,8.364334188800785E-22,1.4535103486837368E-15
50,1.6627159647592295E-15,2.5112200142080062E-17,1.8057091563089298E-19,1.1350231149994622E-21,1.6880098708400554E-15
50.99999999999999,1.9246902393652897E-15,3.127637052041161E-17,2.1969867835226493E-19,1.5324221744969244E-21,1.9561878409862283E-15
51.99999999999999,2.2232966777516118E-15,3.884996357899496E-17,2.663134723916001E-19,2.0589678089314493E-21,2.2624150137708075E-15
53,2.563118275797121E-15,4.813860776759975E-17,3.2166698627696295E-19,2.7536560446204352E-21,2.6115813042070424E-15
53.99999999999999,2.949262460629598E-15,5.951258378173461E-17,3.871964382584092E-19,3.66643472620552E-21,3.009165907284317E-15
54.99999999999999,3.3874128327886634E-15,7.342072988682591E-17,4.64548029522788E-19,4.8610879982040695E-21,3.46130297179301E-15
56,3.883888523127654E-15,9.040736457283558E-17,5.556025083209275E-19,6.418799762056652E-21,3.974857909008572E-15
56.99999999999999,4.445713857445304E-15,1.1113317334612266E-16,6.625153101711104E-19,8.442605623689994E-21,4.557517988707221E-15
57.99999999999999,5.0806712359585405E-15,1.3640108562766947E-16,7.877460797158338E-19,1.1062858824990795E-20,5.2178711305247506E-15
59,5.797391703492627E-15,1.6718793555081635E-16,9.341088892880754E-19,1.4444039287691557E-20,5.96552819197202E-15
60,6.605408802721063E-15,2.0468409016891381E-16,1.104823464599973E-18,1.8793057513043007E-20,6.8112165094120905E-15
60.99999999999999,7.515257624982516E-15,2.5034281252264694E-16,1.3035848660345078E-18,2.436952479092889E-20,7.766928391895988E-15
61.99999999999999,8.538551110683313E-15,3.0594164187347774E-16,1.5346502800602582E-18,3.149811430511817E-20,8.846058900951154E-15
63,9.6879558220448E-15,3.736602407591463E-16,1.8028915195482596E-18,4.058401711234748E-20,1.0063459538340606E-14
63.99999999999999,1.0977424522887038E-14,4.561776976586578E-16,2.113999909608393E-18,5.213097975011553E-20,1.1435768351435054E-14
64.99999999999999,1.2422082917831481E-14,5.567976333218547E-16,2.474553903422648E-18,6.676363004583909E-20,1.2981421868686804E-14
66,1.4038345927066544E-14,6.796046173597323E-16,2.8922923755443665E-18,8.52539714946724E-20,1.4720928090773315E-14
67,1.5843802227344483E-14,8.296703211820922E-16,3.376284987629248E-18,1.085523316256204E-19,1.667695738584583E-14
67.99999999999999,1.7857146758781814E-14,1.0133129696779293E-15,3.937283764223375E-18,1.378251111575968E-19,1.8874534837335124E-14
69,2.009815620667174E-14,1.2384408474339652E-15,4.5881696211320905E-18,1.7449609803197158E-19,2.1341359719824868E-14
70,2.2587009766622178E-14,1.5149972203296907E-15,5.344323828726776E-18,2.2029657800038613E-19,2.4107571607358598E-14
70.99999999999999,2.5344292142838577E-14,1.8555540853667367E-15,6.224432844856984E-18,2.773186209001133E-19,2.7206347979671073E-14
72,2.838967510676059E-14,2.2760982630885967E-15,7.251181059932534E-18,3.480745199615347E-19,3.067337262542908E-14
73,3.174133054316124E-14,2.797098882126118E-15,8.452337886205433E-18,4.355575017683052E-19,3.454731732067533E-14
73.99999999999999,3.541411941929475E-14,3.444934712770325E-15,9.8618980257198E-18,5.433046828600337E-19,3.886945933477366E-14
75,3.941743489673133E-14,4.253927833774587E-15,1.1521770048652569E-17,6.754430356083771E-19,4.368355994359018E-14
76,4.37523040822547E-14,5.269140910469373E-15,1.3483604151423748E-17,8.367289946954093E-19,4.9035765325870195E-14
76.99999999999999,4.840734081971327E-14,6.550419785526058E-15,1.5810803990353202E-17,1.0325551686440799E-18,5.497460396439833E-14
78,5.335338569693432E-14,8.17831146597158E-15,1.8580875019539025E-17,1.2689192849279225E-18,6.155154695721037E-14
79,5.853685414489289E-14,1.0263082160990938E-14,2.188812480286129E-17,1.5523427211285968E-18,6.882337677340782E-14
79.99999999999999,6.387115829744233E-14,1.295882995279147E-14,2.5844623762917376E-17,1.889766572220228E-18,7.685772264056893E-14
81,6.922747305799546E-14,1.648683241846248E-14,3.058101149720522E-17,2.288508656354603E-18,8.574717499661149E-14
82,7.442542298260582E-14,2.1176515954128348E-14,3.624296840291347E-17,2.7564862489443763E-18,9.564093839138602E-14
82.99999999999999,7.922665918622127E-14,2.754255117294525E-14,4.298183643499279E-17,3.3033276866448604E-18,1.0681549552328815E-13
84,8.333980114802513E-14,3.6443262214296936E-14,5.093300651941216E-17,3.943709219350771E-18,1.1983794007806084E-13
85,8.644779252305867E-14,4.943458461624232E-14,6.017625571783855E-17,4.7059020403931415E-18,1.359472592970592E-13
85.99999999999999,8.828270403178776E-14,6.962482487682755E-14,7.066753529665166E-17,5.6515207414926064E-18,1.5798384796465347E-13
87,8.877992905292061E-14,1.0374371416794404E-13,8.213584144278957E-17,6.913904697746256E-18,1.926126929670052E-13
88,8.834925275530865E-14,1.6539276810741513E-13,9.395720423125155E-17,8.717947908709771E-18,2.5384469601486377E-13
88.99999999999999,8.826102066613192E-14,2.603543276335069E-13,1.0505350292539079E-16,1.0990113470665505E-17,3.487313919160349E-13
90,9.102535993436154E-14,3.0540679439009817E-13,1.139443232396205E-16,1.2487530677151679E-17,3.9655858617837654E-13
91,1.0043496831235362E-13,2.560267401590838E-13,1.1913994691896466E-16,1.4098506826376002E-17,3.5659494692518274E-13
91.99999999999999,1.2079902397507672E-13,2.0692882780166935E-13,1.1994452395403918E-16,1.8246912552795837E-17,3.278660432132529E-13
93,1.5526397232841492E-13,1.7802328908075716E-13,1.1736553645321827E-16,2.5510268126347915E-17,3.334301372137516E-13
94,2.0406142460987216E-13,1.5878085595755005E-13,1.1441280354688117E-16,3.59440280656948E-17,3.629926373990348E-13
94.99999999999999,2.640324895923981E-13,1.425209625809158E-13,1.1533172019755626E-16,4.934893986909744E-17,4.0671813283338055E-13
96,3.298627193091711E-13,1.269939537947108E-13,1.242356083357062E-16,6.525993137078339E-17,4.570461686435884E-13
97,3.9599688762656706E-13,1.120213776511158E-13,1.4406441807519607E-16,8.308484953354093E-17,5.082454145452917E-13
97.99999999999999,4.579810394009026E-13,9.803703326957675E-14,1.7632351607738933E-16,1.0224960575088963E-16,5.562966457923076E-13
98.99999999999999,5.128756526958748E-13,8.54484286975893E-14,2.2135786105154981E-16,1.222689524632984E-16,5.986677082069789E-13
100,5.590769758140379E-13,7.445877137004139E-14,2.7878162048574196E-16,1.4274954234024604E-16,6.339572783469051E-13
100.99999999999999,5.959523196083747E-13,6.508435446046018E-14,3.4780373399839506E-16,1.6336761550060178E-16,6.615478454183338E-13
101.99999999999999,6.235367756964537E-13,5.722500622146738E-14,4.274635542303605E-16,1.8385560184921361E-16,6.813731010740007E-13
103,6.422816222791863E-13,5.0718810839677845E-14,5.167466600683598E-16,2.0398347283172045E-16,6.937211632517643E-13
103.99999999999999,6.529177845169465E-13,4.538504071072915E-14,6.146728803979691E-16,2.2356157090584547E-16,6.991410596789795E-13
104.99999999999999,6.563181687179213E-13,4.1043751922622515E-14,7.203471766234288E-16,2.424360997214825E-16,6.983247039168888E-13
106,6.534417068072623E-13,3.753008872178953E-14,8.329963536383546E-16,2.6049472201566746E-16,6.920652866047059E-13
106.99999999999999,6.452632014791533E-13,3.469854791529077E-14,9.520018024457508E-16,2.776637688291748E-16,6.81191414965719E-13
107.99999999999999,6.327032630382565E-13,3.242184583376105E-14,1.0768540486141333E-15,2.939119844239362E-16,6.664958749050557E-13
109,6.166201237796353E-13,3.059275263327182E-14,1.2072271670113454E-15,3.0925637230932224E-16,6.487293599522278E-13
109.99999999999999,5.977763970885913E-13,2.9121189098637426E-14,1.3428844043424233E-15,3.237693168093661E-16,6.285642399083805E-13
